n -t * -s 0  -x 422.71670773848899 -y 589.70733576587497 -Z 0 -z 20  -v circle -c black
n -t * -s 1  -x 571.19274018632495 -y 276.38481828619501 -Z 0 -z 20  -v circle -c black
n -t * -s 2  -x 89.641181272211995 -y 439.333721576041 -Z 0 -z 20  -v circle -c black
n -t * -s 3  -x 481.85891825577198 -y 312.839552218736 -Z 0 -z 20  -v circle -c black
n -t * -s 4  -x 404.354417812321 -y 174.700530392536 -Z 0 -z 20  -v circle -c black
V -t * -v 1.0a5 -a 0
W -t * -x 670 -y 670
A -t * -n 1 -p 0 -o 0xffffffff -c 31 -a 1
A -t * -h 1 -m 2147483647 -s 0
n -t 2.000000 -s 0 -x 422.716708 -y 589.707336 -U -4.046865 -V -1.516404 -T 42.230770
n -t 2.000000 -s 1 -x 571.192740 -y 276.384818 -U -7.879661 -V -4.232723 -T 39.690258
n -t 2.000000 -s 2 -x 89.641181 -y 439.333722 -U -0.100553 -V 0.535017 -T 175.571385
n -t 2.000000 -s 3 -x 481.858918 -y 312.839552 -U 3.308171 -V 3.358763 -T 46.203506
n -t 2.000000 -s 4 -x 404.354418 -y 174.700530 -U -0.249763 -V 1.064495 -T 433.387909
+ -t 40.557023746 -s 2 -d -1 -p cbr -e 512 -c 2 -a 0 -i 24 -k AGT 
- -t 40.557023746 -s 2 -d -1 -p cbr -e 512 -c 2 -a 0 -i 24 -k AGT
h -t 40.557023746 -s 2 -d -1 -p cbr -e 512 -c 2 -a 0 -i 24 -k AGT
+ -t 40.598634468 -s 2 -d -1 -p cbr -e 512 -c 2 -a 0 -i 25 -k AGT 
- -t 40.598634468 -s 2 -d -1 -p cbr -e 512 -c 2 -a 0 -i 25 -k AGT
h -t 40.598634468 -s 2 -d -1 -p cbr -e 512 -c 2 -a 0 -i 25 -k AGT
+ -t 40.658418958 -s 2 -d -1 -p cbr -e 512 -c 2 -a 0 -i 26 -k AGT 
- -t 40.658418958 -s 2 -d -1 -p cbr -e 512 -c 2 -a 0 -i 26 -k AGT
h -t 40.658418958 -s 2 -d -1 -p cbr -e 512 -c 2 -a 0 -i 26 -k AGT
+ -t 40.729015918 -s 2 -d -1 -p cbr -e 512 -c 2 -a 0 -i 27 -k AGT 
- -t 40.729015918 -s 2 -d -1 -p cbr -e 512 -c 2 -a 0 -i 27 -k AGT
h -t 40.729015918 -s 2 -d -1 -p cbr -e 512 -c 2 -a 0 -i 27 -k AGT
+ -t 40.755655536 -s 2 -d -1 -p cbr -e 512 -c 2 -a 0 -i 28 -k AGT 
- -t 40.755655536 -s 2 -d -1 -p cbr -e 512 -c 2 -a 0 -i 28 -k AGT
h -t 40.755655536 -s 2 -d -1 -p cbr -e 512 -c 2 -a 0 -i 28 -k AGT
+ -t 40.798917902 -s 2 -d -1 -p cbr -e 512 -c 2 -a 0 -i 29 -k AGT 
- -t 40.798917902 -s 2 -d -1 -p cbr -e 512 -c 2 -a 0 -i 29 -k AGT
h -t 40.798917902 -s 2 -d -1 -p cbr -e 512 -c 2 -a 0 -i 29 -k AGT
d -t 40.798917902 -s 2 -d -1 -p cbr -e 532 -c 2 -a 0 -i 24 -k RTR
+ -t 40.839167351 -s 2 -d -1 -p cbr -e 512 -c 2 -a 0 -i 31 -k AGT 
- -t 40.839167351 -s 2 -d -1 -p cbr -e 512 -c 2 -a 0 -i 31 -k AGT
h -t 40.839167351 -s 2 -d -1 -p cbr -e 512 -c 2 -a 0 -i 31 -k AGT
d -t 40.839167351 -s 2 -d -1 -p cbr -e 532 -c 2 -a 0 -i 25 -k RTR
+ -t 40.904458942 -s 2 -d -1 -p cbr -e 512 -c 2 -a 0 -i 32 -k AGT 
- -t 40.904458942 -s 2 -d -1 -p cbr -e 512 -c 2 -a 0 -i 32 -k AGT
h -t 40.904458942 -s 2 -d -1 -p cbr -e 512 -c 2 -a 0 -i 32 -k AGT
d -t 40.904458942 -s 2 -d -1 -p cbr -e 532 -c 2 -a 0 -i 26 -k RTR
+ -t 40.938019893 -s 2 -d -1 -p cbr -e 512 -c 2 -a 0 -i 33 -k AGT 
- -t 40.938019893 -s 2 -d -1 -p cbr -e 512 -c 2 -a 0 -i 33 -k AGT
h -t 40.938019893 -s 2 -d -1 -p cbr -e 512 -c 2 -a 0 -i 33 -k AGT
d -t 40.938019893 -s 2 -d -1 -p cbr -e 532 -c 2 -a 0 -i 27 -k RTR
+ -t 40.964616964 -s 2 -d -1 -p cbr -e 512 -c 2 -a 0 -i 34 -k AGT 
- -t 40.964616964 -s 2 -d -1 -p cbr -e 512 -c 2 -a 0 -i 34 -k AGT
h -t 40.964616964 -s 2 -d -1 -p cbr -e 512 -c 2 -a 0 -i 34 -k AGT
d -t 40.964616964 -s 2 -d -1 -p cbr -e 532 -c 2 -a 0 -i 28 -k RTR
+ -t 41.027378738 -s 2 -d -1 -p cbr -e 512 -c 2 -a 0 -i 35 -k AGT 
- -t 41.027378738 -s 2 -d -1 -p cbr -e 512 -c 2 -a 0 -i 35 -k AGT
h -t 41.027378738 -s 2 -d -1 -p cbr -e 512 -c 2 -a 0 -i 35 -k AGT
d -t 41.027378738 -s 2 -d -1 -p cbr -e 532 -c 2 -a 0 -i 29 -k RTR
+ -t 41.083146569 -s 2 -d -1 -p cbr -e 512 -c 2 -a 0 -i 36 -k AGT 
- -t 41.083146569 -s 2 -d -1 -p cbr -e 512 -c 2 -a 0 -i 36 -k AGT
h -t 41.083146569 -s 2 -d -1 -p cbr -e 512 -c 2 -a 0 -i 36 -k AGT
d -t 41.083146569 -s 2 -d -1 -p cbr -e 532 -c 2 -a 0 -i 31 -k RTR
+ -t 41.147627988 -s 2 -d -1 -p cbr -e 512 -c 2 -a 0 -i 37 -k AGT 
- -t 41.147627988 -s 2 -d -1 -p cbr -e 512 -c 2 -a 0 -i 37 -k AGT
h -t 41.147627988 -s 2 -d -1 -p cbr -e 512 -c 2 -a 0 -i 37 -k AGT
d -t 41.147627988 -s 2 -d -1 -p cbr -e 532 -c 2 -a 0 -i 32 -k RTR
+ -t 41.198665331 -s 2 -d -1 -p cbr -e 512 -c 2 -a 0 -i 38 -k AGT 
- -t 41.198665331 -s 2 -d -1 -p cbr -e 512 -c 2 -a 0 -i 38 -k AGT
h -t 41.198665331 -s 2 -d -1 -p cbr -e 512 -c 2 -a 0 -i 38 -k AGT
d -t 41.198665331 -s 2 -d -1 -p cbr -e 532 -c 2 -a 0 -i 33 -k RTR
+ -t 41.246228404 -s 2 -d -1 -p cbr -e 512 -c 2 -a 0 -i 39 -k AGT 
- -t 41.246228404 -s 2 -d -1 -p cbr -e 512 -c 2 -a 0 -i 39 -k AGT
h -t 41.246228404 -s 2 -d -1 -p cbr -e 512 -c 2 -a 0 -i 39 -k AGT
d -t 41.246228404 -s 2 -d -1 -p cbr -e 532 -c 2 -a 0 -i 34 -k RTR
+ -t 41.281609160 -s 2 -d -1 -p cbr -e 512 -c 2 -a 0 -i 40 -k AGT 
- -t 41.281609160 -s 2 -d -1 -p cbr -e 512 -c 2 -a 0 -i 40 -k AGT
h -t 41.281609160 -s 2 -d -1 -p cbr -e 512 -c 2 -a 0 -i 40 -k AGT
d -t 41.281609160 -s 2 -d -1 -p cbr -e 532 -c 2 -a 0 -i 35 -k RTR
+ -t 41.307409019 -s 2 -d -1 -p cbr -e 512 -c 2 -a 0 -i 41 -k AGT 
- -t 41.307409019 -s 2 -d -1 -p cbr -e 512 -c 2 -a 0 -i 41 -k AGT
h -t 41.307409019 -s 2 -d -1 -p cbr -e 512 -c 2 -a 0 -i 41 -k AGT
d -t 41.307409019 -s 2 -d -1 -p cbr -e 532 -c 2 -a 0 -i 36 -k RTR
+ -t 41.354404740 -s 2 -d -1 -p cbr -e 512 -c 2 -a 0 -i 42 -k AGT 
- -t 41.354404740 -s 2 -d -1 -p cbr -e 512 -c 2 -a 0 -i 42 -k AGT
h -t 41.354404740 -s 2 -d -1 -p cbr -e 512 -c 2 -a 0 -i 42 -k AGT
d -t 41.354404740 -s 2 -d -1 -p cbr -e 532 -c 2 -a 0 -i 37 -k RTR
+ -t 41.401265849 -s 2 -d -1 -p cbr -e 512 -c 2 -a 0 -i 43 -k AGT 
- -t 41.401265849 -s 2 -d -1 -p cbr -e 512 -c 2 -a 0 -i 43 -k AGT
h -t 41.401265849 -s 2 -d -1 -p cbr -e 512 -c 2 -a 0 -i 43 -k AGT
d -t 41.401265849 -s 2 -d -1 -p cbr -e 532 -c 2 -a 0 -i 38 -k RTR
+ -t 41.442826449 -s 2 -d -1 -p cbr -e 512 -c 2 -a 0 -i 44 -k AGT 
- -t 41.442826449 -s 2 -d -1 -p cbr -e 512 -c 2 -a 0 -i 44 -k AGT
h -t 41.442826449 -s 2 -d -1 -p cbr -e 512 -c 2 -a 0 -i 44 -k AGT
d -t 41.442826449 -s 2 -d -1 -p cbr -e 532 -c 2 -a 0 -i 39 -k RTR
+ -t 41.473785305 -s 2 -d -1 -p cbr -e 512 -c 2 -a 0 -i 45 -k AGT 
- -t 41.473785305 -s 2 -d -1 -p cbr -e 512 -c 2 -a 0 -i 45 -k AGT
h -t 41.473785305 -s 2 -d -1 -p cbr -e 512 -c 2 -a 0 -i 45 -k AGT
d -t 41.473785305 -s 2 -d -1 -p cbr -e 532 -c 2 -a 0 -i 40 -k RTR
+ -t 41.543756037 -s 2 -d -1 -p cbr -e 512 -c 2 -a 0 -i 46 -k AGT 
- -t 41.543756037 -s 2 -d -1 -p cbr -e 512 -c 2 -a 0 -i 46 -k AGT
h -t 41.543756037 -s 2 -d -1 -p cbr -e 512 -c 2 -a 0 -i 46 -k AGT
d -t 41.543756037 -s 2 -d -1 -p cbr -e 532 -c 2 -a 0 -i 41 -k RTR
+ -t 41.579463639 -s 2 -d -1 -p cbr -e 512 -c 2 -a 0 -i 47 -k AGT 
- -t 41.579463639 -s 2 -d -1 -p cbr -e 512 -c 2 -a 0 -i 47 -k AGT
h -t 41.579463639 -s 2 -d -1 -p cbr -e 512 -c 2 -a 0 -i 47 -k AGT
d -t 41.579463639 -s 2 -d -1 -p cbr -e 532 -c 2 -a 0 -i 42 -k RTR
+ -t 41.625983881 -s 2 -d -1 -p cbr -e 512 -c 2 -a 0 -i 48 -k AGT 
- -t 41.625983881 -s 2 -d -1 -p cbr -e 512 -c 2 -a 0 -i 48 -k AGT
h -t 41.625983881 -s 2 -d -1 -p cbr -e 512 -c 2 -a 0 -i 48 -k AGT
d -t 41.625983881 -s 2 -d -1 -p cbr -e 532 -c 2 -a 0 -i 43 -k RTR
+ -t 41.672130500 -s 2 -d -1 -p cbr -e 512 -c 2 -a 0 -i 50 -k AGT 
- -t 41.672130500 -s 2 -d -1 -p cbr -e 512 -c 2 -a 0 -i 50 -k AGT
h -t 41.672130500 -s 2 -d -1 -p cbr -e 512 -c 2 -a 0 -i 50 -k AGT
d -t 41.672130500 -s 2 -d -1 -p cbr -e 532 -c 2 -a 0 -i 44 -k RTR
n -t 41.690258 -s 1 -x 258.446980 -y 108.386939 -U -0.000000 -V -0.000000 -T 0.000000
+ -t 41.728274994 -s 2 -d -1 -p cbr -e 512 -c 2 -a 0 -i 51 -k AGT 
- -t 41.728274994 -s 2 -d -1 -p cbr -e 512 -c 2 -a 0 -i 51 -k AGT
h -t 41.728274994 -s 2 -d -1 -p cbr -e 512 -c 2 -a 0 -i 51 -k AGT
d -t 41.728274994 -s 2 -d -1 -p cbr -e 532 -c 2 -a 0 -i 45 -k RTR
+ -t 41.795814134 -s 2 -d -1 -p cbr -e 512 -c 2 -a 0 -i 52 -k AGT 
- -t 41.795814134 -s 2 -d -1 -p cbr -e 512 -c 2 -a 0 -i 52 -k AGT
h -t 41.795814134 -s 2 -d -1 -p cbr -e 512 -c 2 -a 0 -i 52 -k AGT
d -t 41.795814134 -s 2 -d -1 -p cbr -e 532 -c 2 -a 0 -i 46 -k RTR
+ -t 41.828739820 -s 2 -d -1 -p cbr -e 512 -c 2 -a 0 -i 53 -k AGT 
- -t 41.828739820 -s 2 -d -1 -p cbr -e 512 -c 2 -a 0 -i 53 -k AGT
h -t 41.828739820 -s 2 -d -1 -p cbr -e 512 -c 2 -a 0 -i 53 -k AGT
d -t 41.828739820 -s 2 -d -1 -p cbr -e 532 -c 2 -a 0 -i 47 -k RTR
+ -t 41.865516854 -s 2 -d -1 -p cbr -e 512 -c 2 -a 0 -i 54 -k AGT 
- -t 41.865516854 -s 2 -d -1 -p cbr -e 512 -c 2 -a 0 -i 54 -k AGT
h -t 41.865516854 -s 2 -d -1 -p cbr -e 512 -c 2 -a 0 -i 54 -k AGT
d -t 41.865516854 -s 2 -d -1 -p cbr -e 532 -c 2 -a 0 -i 48 -k RTR
+ -t 41.893741305 -s 2 -d -1 -p cbr -e 512 -c 2 -a 0 -i 55 -k AGT 
- -t 41.893741305 -s 2 -d -1 -p cbr -e 512 -c 2 -a 0 -i 55 -k AGT
h -t 41.893741305 -s 2 -d -1 -p cbr -e 512 -c 2 -a 0 -i 55 -k AGT
d -t 41.893741305 -s 2 -d -1 -p cbr -e 532 -c 2 -a 0 -i 50 -k RTR
+ -t 41.927575546 -s 2 -d -1 -p cbr -e 512 -c 2 -a 0 -i 56 -k AGT 
- -t 41.927575546 -s 2 -d -1 -p cbr -e 512 -c 2 -a 0 -i 56 -k AGT
h -t 41.927575546 -s 2 -d -1 -p cbr -e 512 -c 2 -a 0 -i 56 -k AGT
d -t 41.927575546 -s 2 -d -1 -p cbr -e 532 -c 2 -a 0 -i 51 -k RTR
+ -t 41.996142787 -s 2 -d -1 -p cbr -e 512 -c 2 -a 0 -i 57 -k AGT 
- -t 41.996142787 -s 2 -d -1 -p cbr -e 512 -c 2 -a 0 -i 57 -k AGT
h -t 41.996142787 -s 2 -d -1 -p cbr -e 512 -c 2 -a 0 -i 57 -k AGT
d -t 41.996142787 -s 2 -d -1 -p cbr -e 532 -c 2 -a 0 -i 52 -k RTR
+ -t 42.023117964 -s 2 -d -1 -p cbr -e 512 -c 2 -a 0 -i 58 -k AGT 
- -t 42.023117964 -s 2 -d -1 -p cbr -e 512 -c 2 -a 0 -i 58 -k AGT
h -t 42.023117964 -s 2 -d -1 -p cbr -e 512 -c 2 -a 0 -i 58 -k AGT
d -t 42.023117964 -s 2 -d -1 -p cbr -e 532 -c 2 -a 0 -i 53 -k RTR
+ -t 42.077043025 -s 2 -d -1 -p cbr -e 512 -c 2 -a 0 -i 59 -k AGT 
- -t 42.077043025 -s 2 -d -1 -p cbr -e 512 -c 2 -a 0 -i 59 -k AGT
h -t 42.077043025 -s 2 -d -1 -p cbr -e 512 -c 2 -a 0 -i 59 -k AGT
d -t 42.077043025 -s 2 -d -1 -p cbr -e 532 -c 2 -a 0 -i 54 -k RTR
+ -t 42.137353434 -s 2 -d -1 -p cbr -e 512 -c 2 -a 0 -i 60 -k AGT 
- -t 42.137353434 -s 2 -d -1 -p cbr -e 512 -c 2 -a 0 -i 60 -k AGT
h -t 42.137353434 -s 2 -d -1 -p cbr -e 512 -c 2 -a 0 -i 60 -k AGT
d -t 42.137353434 -s 2 -d -1 -p cbr -e 532 -c 2 -a 0 -i 55 -k RTR
+ -t 42.173694969 -s 2 -d -1 -p cbr -e 512 -c 2 -a 0 -i 61 -k AGT 
- -t 42.173694969 -s 2 -d -1 -p cbr -e 512 -c 2 -a 0 -i 61 -k AGT
h -t 42.173694969 -s 2 -d -1 -p cbr -e 512 -c 2 -a 0 -i 61 -k AGT
d -t 42.173694969 -s 2 -d -1 -p cbr -e 532 -c 2 -a 0 -i 56 -k RTR
+ -t 42.240207034 -s 2 -d -1 -p cbr -e 512 -c 2 -a 0 -i 62 -k AGT 
- -t 42.240207034 -s 2 -d -1 -p cbr -e 512 -c 2 -a 0 -i 62 -k AGT
h -t 42.240207034 -s 2 -d -1 -p cbr -e 512 -c 2 -a 0 -i 62 -k AGT
d -t 42.240207034 -s 2 -d -1 -p cbr -e 532 -c 2 -a 0 -i 57 -k RTR
+ -t 42.268141930 -s 2 -d -1 -p cbr -e 512 -c 2 -a 0 -i 63 -k AGT 
- -t 42.268141930 -s 2 -d -1 -p cbr -e 512 -c 2 -a 0 -i 63 -k AGT
h -t 42.268141930 -s 2 -d -1 -p cbr -e 512 -c 2 -a 0 -i 63 -k AGT
d -t 42.268141930 -s 2 -d -1 -p cbr -e 532 -c 2 -a 0 -i 58 -k RTR
+ -t 42.310139997 -s 2 -d -1 -p cbr -e 512 -c 2 -a 0 -i 64 -k AGT 
- -t 42.310139997 -s 2 -d -1 -p cbr -e 512 -c 2 -a 0 -i 64 -k AGT
h -t 42.310139997 -s 2 -d -1 -p cbr -e 512 -c 2 -a 0 -i 64 -k AGT
d -t 42.310139997 -s 2 -d -1 -p cbr -e 532 -c 2 -a 0 -i 59 -k RTR
+ -t 42.374841896 -s 2 -d -1 -p cbr -e 512 -c 2 -a 0 -i 65 -k AGT 
- -t 42.374841896 -s 2 -d -1 -p cbr -e 512 -c 2 -a 0 -i 65 -k AGT
h -t 42.374841896 -s 2 -d -1 -p cbr -e 512 -c 2 -a 0 -i 65 -k AGT
d -t 42.374841896 -s 2 -d -1 -p cbr -e 532 -c 2 -a 0 -i 60 -k RTR
+ -t 42.431695868 -s 2 -d -1 -p cbr -e 512 -c 2 -a 0 -i 66 -k AGT 
- -t 42.431695868 -s 2 -d -1 -p cbr -e 512 -c 2 -a 0 -i 66 -k AGT
h -t 42.431695868 -s 2 -d -1 -p cbr -e 512 -c 2 -a 0 -i 66 -k AGT
d -t 42.431695868 -s 2 -d -1 -p cbr -e 532 -c 2 -a 0 -i 61 -k RTR
+ -t 42.478366382 -s 2 -d -1 -p cbr -e 512 -c 2 -a 0 -i 67 -k AGT 
- -t 42.478366382 -s 2 -d -1 -p cbr -e 512 -c 2 -a 0 -i 67 -k AGT
h -t 42.478366382 -s 2 -d -1 -p cbr -e 512 -c 2 -a 0 -i 67 -k AGT
d -t 42.478366382 -s 2 -d -1 -p cbr -e 532 -c 2 -a 0 -i 62 -k RTR
+ -t 42.514815226 -s 2 -d -1 -p cbr -e 512 -c 2 -a 0 -i 68 -k AGT 
- -t 42.514815226 -s 2 -d -1 -p cbr -e 512 -c 2 -a 0 -i 68 -k AGT
h -t 42.514815226 -s 2 -d -1 -p cbr -e 512 -c 2 -a 0 -i 68 -k AGT
d -t 42.514815226 -s 2 -d -1 -p cbr -e 532 -c 2 -a 0 -i 63 -k RTR
+ -t 42.561907381 -s 2 -d -1 -p cbr -e 512 -c 2 -a 0 -i 69 -k AGT 
- -t 42.561907381 -s 2 -d -1 -p cbr -e 512 -c 2 -a 0 -i 69 -k AGT
h -t 42.561907381 -s 2 -d -1 -p cbr -e 512 -c 2 -a 0 -i 69 -k AGT
d -t 42.561907381 -s 2 -d -1 -p cbr -e 532 -c 2 -a 0 -i 64 -k RTR
+ -t 42.633903324 -s 2 -d -1 -p cbr -e 512 -c 2 -a 0 -i 70 -k AGT 
- -t 42.633903324 -s 2 -d -1 -p cbr -e 512 -c 2 -a 0 -i 70 -k AGT
h -t 42.633903324 -s 2 -d -1 -p cbr -e 512 -c 2 -a 0 -i 70 -k AGT
d -t 42.633903324 -s 2 -d -1 -p cbr -e 532 -c 2 -a 0 -i 65 -k RTR
+ -t 42.681902011 -s 2 -d -1 -p cbr -e 512 -c 2 -a 0 -i 71 -k AGT 
- -t 42.681902011 -s 2 -d -1 -p cbr -e 512 -c 2 -a 0 -i 71 -k AGT
h -t 42.681902011 -s 2 -d -1 -p cbr -e 512 -c 2 -a 0 -i 71 -k AGT
d -t 42.681902011 -s 2 -d -1 -p cbr -e 532 -c 2 -a 0 -i 66 -k RTR
+ -t 42.751973918 -s 2 -d -1 -p cbr -e 512 -c 2 -a 0 -i 72 -k AGT 
- -t 42.751973918 -s 2 -d -1 -p cbr -e 512 -c 2 -a 0 -i 72 -k AGT
h -t 42.751973918 -s 2 -d -1 -p cbr -e 512 -c 2 -a 0 -i 72 -k AGT
d -t 42.751973918 -s 2 -d -1 -p cbr -e 532 -c 2 -a 0 -i 67 -k RTR
+ -t 42.824859894 -s 2 -d -1 -p cbr -e 512 -c 2 -a 0 -i 73 -k AGT 
- -t 42.824859894 -s 2 -d -1 -p cbr -e 512 -c 2 -a 0 -i 73 -k AGT
h -t 42.824859894 -s 2 -d -1 -p cbr -e 512 -c 2 -a 0 -i 73 -k AGT
d -t 42.824859894 -s 2 -d -1 -p cbr -e 532 -c 2 -a 0 -i 68 -k RTR
+ -t 42.895145250 -s 2 -d -1 -p cbr -e 512 -c 2 -a 0 -i 74 -k AGT 
- -t 42.895145250 -s 2 -d -1 -p cbr -e 512 -c 2 -a 0 -i 74 -k AGT
h -t 42.895145250 -s 2 -d -1 -p cbr -e 512 -c 2 -a 0 -i 74 -k AGT
d -t 42.895145250 -s 2 -d -1 -p cbr -e 532 -c 2 -a 0 -i 69 -k RTR
+ -t 42.898102734 -s 2 -d -1 -p cbr -e 512 -c 2 -a 0 -i 75 -k AGT 
- -t 42.898102734 -s 2 -d -1 -p cbr -e 512 -c 2 -a 0 -i 75 -k AGT
h -t 42.898102734 -s 2 -d -1 -p cbr -e 512 -c 2 -a 0 -i 75 -k AGT
+ -t 42.927734945 -s 2 -d -1 -p cbr -e 512 -c 2 -a 0 -i 76 -k AGT 
- -t 42.927734945 -s 2 -d -1 -p cbr -e 512 -c 2 -a 0 -i 76 -k AGT
h -t 42.927734945 -s 2 -d -1 -p cbr -e 512 -c 2 -a 0 -i 76 -k AGT
d -t 42.927734945 -s 2 -d -1 -p cbr -e 532 -c 2 -a 0 -i 70 -k RTR
+ -t 42.970353938 -s 2 -d -1 -p cbr -e 512 -c 2 -a 0 -i 77 -k AGT 
- -t 42.970353938 -s 2 -d -1 -p cbr -e 512 -c 2 -a 0 -i 77 -k AGT
h -t 42.970353938 -s 2 -d -1 -p cbr -e 512 -c 2 -a 0 -i 77 -k AGT
+ -t 42.979746531 -s 2 -d -1 -p cbr -e 512 -c 2 -a 0 -i 78 -k AGT 
- -t 42.979746531 -s 2 -d -1 -p cbr -e 512 -c 2 -a 0 -i 78 -k AGT
h -t 42.979746531 -s 2 -d -1 -p cbr -e 512 -c 2 -a 0 -i 78 -k AGT
d -t 42.979746531 -s 2 -d -1 -p cbr -e 532 -c 2 -a 0 -i 71 -k RTR
+ -t 43.008070783 -s 2 -d -1 -p cbr -e 512 -c 2 -a 0 -i 79 -k AGT 
- -t 43.008070783 -s 2 -d -1 -p cbr -e 512 -c 2 -a 0 -i 79 -k AGT
h -t 43.008070783 -s 2 -d -1 -p cbr -e 512 -c 2 -a 0 -i 79 -k AGT
d -t 43.008070783 -s 2 -d -1 -p cbr -e 532 -c 2 -a 0 -i 72 -k RTR
+ -t 43.022121568 -s 2 -d -1 -p cbr -e 512 -c 2 -a 0 -i 80 -k AGT 
- -t 43.022121568 -s 2 -d -1 -p cbr -e 512 -c 2 -a 0 -i 80 -k AGT
h -t 43.022121568 -s 2 -d -1 -p cbr -e 512 -c 2 -a 0 -i 80 -k AGT
+ -t 43.073023061 -s 2 -d -1 -p cbr -e 512 -c 2 -a 0 -i 81 -k AGT 
- -t 43.073023061 -s 2 -d -1 -p cbr -e 512 -c 2 -a 0 -i 81 -k AGT
h -t 43.073023061 -s 2 -d -1 -p cbr -e 512 -c 2 -a 0 -i 81 -k AGT
+ -t 43.081662315 -s 2 -d -1 -p cbr -e 512 -c 2 -a 0 -i 82 -k AGT 
- -t 43.081662315 -s 2 -d -1 -p cbr -e 512 -c 2 -a 0 -i 82 -k AGT
h -t 43.081662315 -s 2 -d -1 -p cbr -e 512 -c 2 -a 0 -i 82 -k AGT
d -t 43.081662315 -s 2 -d -1 -p cbr -e 532 -c 2 -a 0 -i 73 -k RTR
+ -t 43.142072040 -s 2 -d -1 -p cbr -e 512 -c 2 -a 0 -i 83 -k AGT 
- -t 43.142072040 -s 2 -d -1 -p cbr -e 512 -c 2 -a 0 -i 83 -k AGT
h -t 43.142072040 -s 2 -d -1 -p cbr -e 512 -c 2 -a 0 -i 83 -k AGT
+ -t 43.143151685 -s 2 -d -1 -p cbr -e 512 -c 2 -a 0 -i 84 -k AGT 
- -t 43.143151685 -s 2 -d -1 -p cbr -e 512 -c 2 -a 0 -i 84 -k AGT
h -t 43.143151685 -s 2 -d -1 -p cbr -e 512 -c 2 -a 0 -i 84 -k AGT
d -t 43.143151685 -s 2 -d -1 -p cbr -e 532 -c 2 -a 0 -i 74 -k RTR
+ -t 43.180215084 -s 2 -d -1 -p cbr -e 512 -c 2 -a 0 -i 85 -k AGT 
- -t 43.180215084 -s 2 -d -1 -p cbr -e 512 -c 2 -a 0 -i 85 -k AGT
h -t 43.180215084 -s 2 -d -1 -p cbr -e 512 -c 2 -a 0 -i 85 -k AGT
d -t 43.180215084 -s 2 -d -1 -p cbr -e 532 -c 2 -a 0 -i 75 -k RTR
+ -t 43.192127494 -s 2 -d -1 -p cbr -e 512 -c 2 -a 0 -i 86 -k AGT 
- -t 43.192127494 -s 2 -d -1 -p cbr -e 512 -c 2 -a 0 -i 86 -k AGT
h -t 43.192127494 -s 2 -d -1 -p cbr -e 512 -c 2 -a 0 -i 86 -k AGT
d -t 43.192127494 -s 2 -d -1 -p cbr -e 532 -c 2 -a 0 -i 76 -k RTR
+ -t 43.227421618 -s 2 -d -1 -p cbr -e 512 -c 2 -a 0 -i 87 -k AGT 
- -t 43.227421618 -s 2 -d -1 -p cbr -e 512 -c 2 -a 0 -i 87 -k AGT
h -t 43.227421618 -s 2 -d -1 -p cbr -e 512 -c 2 -a 0 -i 87 -k AGT
d -t 43.227421618 -s 2 -d -1 -p cbr -e 532 -c 2 -a 0 -i 78 -k RTR
+ -t 43.242699744 -s 2 -d -1 -p cbr -e 512 -c 2 -a 0 -i 88 -k AGT 
- -t 43.242699744 -s 2 -d -1 -p cbr -e 512 -c 2 -a 0 -i 88 -k AGT
h -t 43.242699744 -s 2 -d -1 -p cbr -e 512 -c 2 -a 0 -i 88 -k AGT
d -t 43.242699744 -s 2 -d -1 -p cbr -e 532 -c 2 -a 0 -i 77 -k RTR
+ -t 43.286190496 -s 2 -d -1 -p cbr -e 512 -c 2 -a 0 -i 89 -k AGT 
- -t 43.286190496 -s 2 -d -1 -p cbr -e 512 -c 2 -a 0 -i 89 -k AGT
h -t 43.286190496 -s 2 -d -1 -p cbr -e 512 -c 2 -a 0 -i 89 -k AGT
d -t 43.286190496 -s 2 -d -1 -p cbr -e 532 -c 2 -a 0 -i 79 -k RTR
+ -t 43.300562568 -s 2 -d -1 -p cbr -e 512 -c 2 -a 0 -i 90 -k AGT 
- -t 43.300562568 -s 2 -d -1 -p cbr -e 512 -c 2 -a 0 -i 90 -k AGT
h -t 43.300562568 -s 2 -d -1 -p cbr -e 512 -c 2 -a 0 -i 90 -k AGT
d -t 43.300562568 -s 2 -d -1 -p cbr -e 532 -c 2 -a 0 -i 80 -k RTR
+ -t 43.319283292 -s 2 -d -1 -p cbr -e 512 -c 2 -a 0 -i 91 -k AGT 
- -t 43.319283292 -s 2 -d -1 -p cbr -e 512 -c 2 -a 0 -i 91 -k AGT
h -t 43.319283292 -s 2 -d -1 -p cbr -e 512 -c 2 -a 0 -i 91 -k AGT
d -t 43.319283292 -s 2 -d -1 -p cbr -e 532 -c 2 -a 0 -i 82 -k RTR
+ -t 43.338799988 -s 2 -d -1 -p cbr -e 512 -c 2 -a 0 -i 92 -k AGT 
- -t 43.338799988 -s 2 -d -1 -p cbr -e 512 -c 2 -a 0 -i 92 -k AGT
h -t 43.338799988 -s 2 -d -1 -p cbr -e 512 -c 2 -a 0 -i 92 -k AGT
d -t 43.338799988 -s 2 -d -1 -p cbr -e 532 -c 2 -a 0 -i 81 -k RTR
+ -t 43.363215157 -s 2 -d -1 -p cbr -e 512 -c 2 -a 0 -i 93 -k AGT 
- -t 43.363215157 -s 2 -d -1 -p cbr -e 512 -c 2 -a 0 -i 93 -k AGT
h -t 43.363215157 -s 2 -d -1 -p cbr -e 512 -c 2 -a 0 -i 93 -k AGT
d -t 43.363215157 -s 2 -d -1 -p cbr -e 532 -c 2 -a 0 -i 84 -k RTR
+ -t 43.394386397 -s 2 -d -1 -p cbr -e 512 -c 2 -a 0 -i 94 -k AGT 
- -t 43.394386397 -s 2 -d -1 -p cbr -e 512 -c 2 -a 0 -i 94 -k AGT
h -t 43.394386397 -s 2 -d -1 -p cbr -e 512 -c 2 -a 0 -i 94 -k AGT
d -t 43.394386397 -s 2 -d -1 -p cbr -e 532 -c 2 -a 0 -i 83 -k RTR
+ -t 43.420987241 -s 2 -d -1 -p cbr -e 512 -c 2 -a 0 -i 95 -k AGT 
- -t 43.420987241 -s 2 -d -1 -p cbr -e 512 -c 2 -a 0 -i 95 -k AGT
h -t 43.420987241 -s 2 -d -1 -p cbr -e 512 -c 2 -a 0 -i 95 -k AGT
d -t 43.420987241 -s 2 -d -1 -p cbr -e 532 -c 2 -a 0 -i 86 -k RTR
+ -t 43.460008666 -s 2 -d -1 -p cbr -e 512 -c 2 -a 0 -i 96 -k AGT 
- -t 43.460008666 -s 2 -d -1 -p cbr -e 512 -c 2 -a 0 -i 96 -k AGT
h -t 43.460008666 -s 2 -d -1 -p cbr -e 512 -c 2 -a 0 -i 96 -k AGT
d -t 43.460008666 -s 2 -d -1 -p cbr -e 532 -c 2 -a 0 -i 87 -k RTR
+ -t 43.462114171 -s 2 -d -1 -p cbr -e 512 -c 2 -a 0 -i 97 -k AGT 
- -t 43.462114171 -s 2 -d -1 -p cbr -e 512 -c 2 -a 0 -i 97 -k AGT
h -t 43.462114171 -s 2 -d -1 -p cbr -e 512 -c 2 -a 0 -i 97 -k AGT
d -t 43.462114171 -s 2 -d -1 -p cbr -e 532 -c 2 -a 0 -i 85 -k RTR
+ -t 43.493331140 -s 2 -d -1 -p cbr -e 512 -c 2 -a 0 -i 98 -k AGT 
- -t 43.493331140 -s 2 -d -1 -p cbr -e 512 -c 2 -a 0 -i 98 -k AGT
h -t 43.493331140 -s 2 -d -1 -p cbr -e 512 -c 2 -a 0 -i 98 -k AGT
d -t 43.493331140 -s 2 -d -1 -p cbr -e 532 -c 2 -a 0 -i 89 -k RTR
+ -t 43.496759382 -s 2 -d -1 -p cbr -e 512 -c 2 -a 0 -i 99 -k AGT 
- -t 43.496759382 -s 2 -d -1 -p cbr -e 512 -c 2 -a 0 -i 99 -k AGT
h -t 43.496759382 -s 2 -d -1 -p cbr -e 512 -c 2 -a 0 -i 99 -k AGT
d -t 43.496759382 -s 2 -d -1 -p cbr -e 532 -c 2 -a 0 -i 88 -k RTR
+ -t 43.520409790 -s 2 -d -1 -p cbr -e 512 -c 2 -a 0 -i 100 -k AGT 
- -t 43.520409790 -s 2 -d -1 -p cbr -e 512 -c 2 -a 0 -i 100 -k AGT
h -t 43.520409790 -s 2 -d -1 -p cbr -e 512 -c 2 -a 0 -i 100 -k AGT
d -t 43.520409790 -s 2 -d -1 -p cbr -e 532 -c 2 -a 0 -i 91 -k RTR
+ -t 43.525629248 -s 2 -d -1 -p cbr -e 512 -c 2 -a 0 -i 101 -k AGT 
- -t 43.525629248 -s 2 -d -1 -p cbr -e 512 -c 2 -a 0 -i 101 -k AGT
h -t 43.525629248 -s 2 -d -1 -p cbr -e 512 -c 2 -a 0 -i 101 -k AGT
d -t 43.525629248 -s 2 -d -1 -p cbr -e 532 -c 2 -a 0 -i 90 -k RTR
+ -t 43.551380581 -s 2 -d -1 -p cbr -e 512 -c 2 -a 0 -i 102 -k AGT 
- -t 43.551380581 -s 2 -d -1 -p cbr -e 512 -c 2 -a 0 -i 102 -k AGT
h -t 43.551380581 -s 2 -d -1 -p cbr -e 512 -c 2 -a 0 -i 102 -k AGT
d -t 43.551380581 -s 2 -d -1 -p cbr -e 532 -c 2 -a 0 -i 93 -k RTR
+ -t 43.553325052 -s 2 -d -1 -p cbr -e 512 -c 2 -a 0 -i 103 -k AGT 
- -t 43.553325052 -s 2 -d -1 -p cbr -e 512 -c 2 -a 0 -i 103 -k AGT
h -t 43.553325052 -s 2 -d -1 -p cbr -e 512 -c 2 -a 0 -i 103 -k AGT
d -t 43.553325052 -s 2 -d -1 -p cbr -e 532 -c 2 -a 0 -i 92 -k RTR
+ -t 43.589041921 -s 2 -d -1 -p cbr -e 512 -c 2 -a 0 -i 104 -k AGT 
- -t 43.589041921 -s 2 -d -1 -p cbr -e 512 -c 2 -a 0 -i 104 -k AGT
h -t 43.589041921 -s 2 -d -1 -p cbr -e 512 -c 2 -a 0 -i 104 -k AGT
d -t 43.589041921 -s 2 -d -1 -p cbr -e 532 -c 2 -a 0 -i 94 -k RTR
+ -t 43.594337288 -s 2 -d -1 -p cbr -e 512 -c 2 -a 0 -i 105 -k AGT 
- -t 43.594337288 -s 2 -d -1 -p cbr -e 512 -c 2 -a 0 -i 105 -k AGT
h -t 43.594337288 -s 2 -d -1 -p cbr -e 512 -c 2 -a 0 -i 105 -k AGT
d -t 43.594337288 -s 2 -d -1 -p cbr -e 532 -c 2 -a 0 -i 95 -k RTR
+ -t 43.616809252 -s 2 -d -1 -p cbr -e 512 -c 2 -a 0 -i 106 -k AGT 
- -t 43.616809252 -s 2 -d -1 -p cbr -e 512 -c 2 -a 0 -i 106 -k AGT
h -t 43.616809252 -s 2 -d -1 -p cbr -e 512 -c 2 -a 0 -i 106 -k AGT
d -t 43.616809252 -s 2 -d -1 -p cbr -e 532 -c 2 -a 0 -i 97 -k RTR
+ -t 43.667029708 -s 2 -d -1 -p cbr -e 512 -c 2 -a 0 -i 107 -k AGT 
- -t 43.667029708 -s 2 -d -1 -p cbr -e 512 -c 2 -a 0 -i 107 -k AGT
h -t 43.667029708 -s 2 -d -1 -p cbr -e 512 -c 2 -a 0 -i 107 -k AGT
d -t 43.667029708 -s 2 -d -1 -p cbr -e 532 -c 2 -a 0 -i 96 -k RTR
+ -t 43.682919799 -s 2 -d -1 -p cbr -e 512 -c 2 -a 0 -i 108 -k AGT 
- -t 43.682919799 -s 2 -d -1 -p cbr -e 512 -c 2 -a 0 -i 108 -k AGT
h -t 43.682919799 -s 2 -d -1 -p cbr -e 512 -c 2 -a 0 -i 108 -k AGT
d -t 43.682919799 -s 2 -d -1 -p cbr -e 532 -c 2 -a 0 -i 99 -k RTR
n -t 43.690258 -s 1 -x 258.446980 -y 108.386939 -U 3.009626 -V 6.743311 -T 66.316379
+ -t 43.727447311 -s 2 -d -1 -p cbr -e 512 -c 2 -a 0 -i 109 -k AGT 
- -t 43.727447311 -s 2 -d -1 -p cbr -e 512 -c 2 -a 0 -i 109 -k AGT
h -t 43.727447311 -s 2 -d -1 -p cbr -e 512 -c 2 -a 0 -i 109 -k AGT
d -t 43.727447311 -s 2 -d -1 -p cbr -e 532 -c 2 -a 0 -i 98 -k RTR
+ -t 43.729437864 -s 2 -d -1 -p cbr -e 512 -c 2 -a 0 -i 110 -k AGT 
- -t 43.729437864 -s 2 -d -1 -p cbr -e 512 -c 2 -a 0 -i 110 -k AGT
h -t 43.729437864 -s 2 -d -1 -p cbr -e 512 -c 2 -a 0 -i 110 -k AGT
d -t 43.729437864 -s 2 -d -1 -p cbr -e 532 -c 2 -a 0 -i 101 -k RTR
+ -t 43.774078897 -s 2 -d -1 -p cbr -e 512 -c 2 -a 0 -i 111 -k AGT 
- -t 43.774078897 -s 2 -d -1 -p cbr -e 512 -c 2 -a 0 -i 111 -k AGT
h -t 43.774078897 -s 2 -d -1 -p cbr -e 512 -c 2 -a 0 -i 111 -k AGT
d -t 43.774078897 -s 2 -d -1 -p cbr -e 532 -c 2 -a 0 -i 103 -k RTR
+ -t 43.793949582 -s 2 -d -1 -p cbr -e 512 -c 2 -a 0 -i 112 -k AGT 
- -t 43.793949582 -s 2 -d -1 -p cbr -e 512 -c 2 -a 0 -i 112 -k AGT
h -t 43.793949582 -s 2 -d -1 -p cbr -e 512 -c 2 -a 0 -i 112 -k AGT
d -t 43.793949582 -s 2 -d -1 -p cbr -e 532 -c 2 -a 0 -i 100 -k RTR
+ -t 43.825441658 -s 2 -d -1 -p cbr -e 512 -c 2 -a 0 -i 113 -k AGT 
- -t 43.825441658 -s 2 -d -1 -p cbr -e 512 -c 2 -a 0 -i 113 -k AGT
h -t 43.825441658 -s 2 -d -1 -p cbr -e 512 -c 2 -a 0 -i 113 -k AGT
d -t 43.825441658 -s 2 -d -1 -p cbr -e 532 -c 2 -a 0 -i 102 -k RTR
+ -t 43.826252513 -s 2 -d -1 -p cbr -e 512 -c 2 -a 0 -i 114 -k AGT 
- -t 43.826252513 -s 2 -d -1 -p cbr -e 512 -c 2 -a 0 -i 114 -k AGT
h -t 43.826252513 -s 2 -d -1 -p cbr -e 512 -c 2 -a 0 -i 114 -k AGT
d -t 43.826252513 -s 2 -d -1 -p cbr -e 532 -c 2 -a 0 -i 104 -k RTR
+ -t 43.872103982 -s 2 -d -1 -p cbr -e 512 -c 2 -a 0 -i 115 -k AGT 
- -t 43.872103982 -s 2 -d -1 -p cbr -e 512 -c 2 -a 0 -i 115 -k AGT
h -t 43.872103982 -s 2 -d -1 -p cbr -e 512 -c 2 -a 0 -i 115 -k AGT
d -t 43.872103982 -s 2 -d -1 -p cbr -e 532 -c 2 -a 0 -i 106 -k RTR
+ -t 43.879453269 -s 2 -d -1 -p cbr -e 512 -c 2 -a 0 -i 116 -k AGT 
- -t 43.879453269 -s 2 -d -1 -p cbr -e 512 -c 2 -a 0 -i 116 -k AGT
h -t 43.879453269 -s 2 -d -1 -p cbr -e 512 -c 2 -a 0 -i 116 -k AGT
d -t 43.879453269 -s 2 -d -1 -p cbr -e 532 -c 2 -a 0 -i 105 -k RTR
+ -t 43.938447888 -s 2 -d -1 -p cbr -e 512 -c 2 -a 0 -i 117 -k AGT 
- -t 43.938447888 -s 2 -d -1 -p cbr -e 512 -c 2 -a 0 -i 117 -k AGT
h -t 43.938447888 -s 2 -d -1 -p cbr -e 512 -c 2 -a 0 -i 117 -k AGT
d -t 43.938447888 -s 2 -d -1 -p cbr -e 532 -c 2 -a 0 -i 108 -k RTR
+ -t 43.944747934 -s 2 -d -1 -p cbr -e 512 -c 2 -a 0 -i 118 -k AGT 
- -t 43.944747934 -s 2 -d -1 -p cbr -e 512 -c 2 -a 0 -i 118 -k AGT
h -t 43.944747934 -s 2 -d -1 -p cbr -e 512 -c 2 -a 0 -i 118 -k AGT
d -t 43.944747934 -s 2 -d -1 -p cbr -e 532 -c 2 -a 0 -i 107 -k RTR
+ -t 43.969924342 -s 2 -d -1 -p cbr -e 512 -c 2 -a 0 -i 119 -k AGT 
- -t 43.969924342 -s 2 -d -1 -p cbr -e 512 -c 2 -a 0 -i 119 -k AGT
h -t 43.969924342 -s 2 -d -1 -p cbr -e 512 -c 2 -a 0 -i 119 -k AGT
d -t 43.969924342 -s 2 -d -1 -p cbr -e 532 -c 2 -a 0 -i 109 -k RTR
+ -t 44.006316523 -s 2 -d -1 -p cbr -e 512 -c 2 -a 0 -i 120 -k AGT 
- -t 44.006316523 -s 2 -d -1 -p cbr -e 512 -c 2 -a 0 -i 120 -k AGT
h -t 44.006316523 -s 2 -d -1 -p cbr -e 512 -c 2 -a 0 -i 120 -k AGT
d -t 44.006316523 -s 2 -d -1 -p cbr -e 532 -c 2 -a 0 -i 110 -k RTR
+ -t 44.034605874 -s 2 -d -1 -p cbr -e 512 -c 2 -a 0 -i 121 -k AGT 
- -t 44.034605874 -s 2 -d -1 -p cbr -e 512 -c 2 -a 0 -i 121 -k AGT
h -t 44.034605874 -s 2 -d -1 -p cbr -e 512 -c 2 -a 0 -i 121 -k AGT
d -t 44.034605874 -s 2 -d -1 -p cbr -e 532 -c 2 -a 0 -i 112 -k RTR
+ -t 44.035120132 -s 2 -d -1 -p cbr -e 512 -c 2 -a 0 -i 122 -k AGT 
- -t 44.035120132 -s 2 -d -1 -p cbr -e 512 -c 2 -a 0 -i 122 -k AGT
h -t 44.035120132 -s 2 -d -1 -p cbr -e 512 -c 2 -a 0 -i 122 -k AGT
d -t 44.035120132 -s 2 -d -1 -p cbr -e 532 -c 2 -a 0 -i 111 -k RTR
+ -t 44.070175369 -s 2 -d -1 -p cbr -e 512 -c 2 -a 0 -i 123 -k AGT 
- -t 44.070175369 -s 2 -d -1 -p cbr -e 512 -c 2 -a 0 -i 123 -k AGT
h -t 44.070175369 -s 2 -d -1 -p cbr -e 512 -c 2 -a 0 -i 123 -k AGT
d -t 44.070175369 -s 2 -d -1 -p cbr -e 532 -c 2 -a 0 -i 113 -k RTR
+ -t 44.102034918 -s 2 -d -1 -p cbr -e 512 -c 2 -a 0 -i 124 -k AGT 
- -t 44.102034918 -s 2 -d -1 -p cbr -e 512 -c 2 -a 0 -i 124 -k AGT
h -t 44.102034918 -s 2 -d -1 -p cbr -e 512 -c 2 -a 0 -i 124 -k AGT
d -t 44.102034918 -s 2 -d -1 -p cbr -e 532 -c 2 -a 0 -i 114 -k RTR
+ -t 44.119037706 -s 2 -d -1 -p cbr -e 512 -c 2 -a 0 -i 125 -k AGT 
- -t 44.119037706 -s 2 -d -1 -p cbr -e 512 -c 2 -a 0 -i 125 -k AGT
h -t 44.119037706 -s 2 -d -1 -p cbr -e 512 -c 2 -a 0 -i 125 -k AGT
d -t 44.119037706 -s 2 -d -1 -p cbr -e 532 -c 2 -a 0 -i 116 -k RTR
+ -t 44.134991879 -s 2 -d -1 -p cbr -e 512 -c 2 -a 0 -i 126 -k AGT 
- -t 44.134991879 -s 2 -d -1 -p cbr -e 512 -c 2 -a 0 -i 126 -k AGT
h -t 44.134991879 -s 2 -d -1 -p cbr -e 512 -c 2 -a 0 -i 126 -k AGT
d -t 44.134991879 -s 2 -d -1 -p cbr -e 532 -c 2 -a 0 -i 115 -k RTR
+ -t 44.157525481 -s 2 -d -1 -p cbr -e 512 -c 2 -a 0 -i 127 -k AGT 
- -t 44.157525481 -s 2 -d -1 -p cbr -e 512 -c 2 -a 0 -i 127 -k AGT
h -t 44.157525481 -s 2 -d -1 -p cbr -e 512 -c 2 -a 0 -i 127 -k AGT
d -t 44.157525481 -s 2 -d -1 -p cbr -e 532 -c 2 -a 0 -i 118 -k RTR
+ -t 44.160988595 -s 2 -d -1 -p cbr -e 512 -c 2 -a 0 -i 128 -k AGT 
- -t 44.160988595 -s 2 -d -1 -p cbr -e 512 -c 2 -a 0 -i 128 -k AGT
h -t 44.160988595 -s 2 -d -1 -p cbr -e 512 -c 2 -a 0 -i 128 -k AGT
d -t 44.160988595 -s 2 -d -1 -p cbr -e 532 -c 2 -a 0 -i 117 -k RTR
+ -t 44.207582646 -s 2 -d -1 -p cbr -e 512 -c 2 -a 0 -i 129 -k AGT 
- -t 44.207582646 -s 2 -d -1 -p cbr -e 512 -c 2 -a 0 -i 129 -k AGT
h -t 44.207582646 -s 2 -d -1 -p cbr -e 512 -c 2 -a 0 -i 129 -k AGT
d -t 44.207582646 -s 2 -d -1 -p cbr -e 532 -c 2 -a 0 -i 120 -k RTR
+ -t 44.217733688 -s 2 -d -1 -p cbr -e 512 -c 2 -a 0 -i 130 -k AGT 
- -t 44.217733688 -s 2 -d -1 -p cbr -e 512 -c 2 -a 0 -i 130 -k AGT
h -t 44.217733688 -s 2 -d -1 -p cbr -e 512 -c 2 -a 0 -i 130 -k AGT
d -t 44.217733688 -s 2 -d -1 -p cbr -e 532 -c 2 -a 0 -i 119 -k RTR
n -t 44.230770 -s 0 -x 251.814462 -y 525.668445 -U 0.000000 -V 0.000000 -T 0.000000
+ -t 44.256954793 -s 2 -d -1 -p cbr -e 512 -c 2 -a 0 -i 131 -k AGT 
- -t 44.256954793 -s 2 -d -1 -p cbr -e 512 -c 2 -a 0 -i 131 -k AGT
h -t 44.256954793 -s 2 -d -1 -p cbr -e 512 -c 2 -a 0 -i 131 -k AGT
d -t 44.256954793 -s 2 -d -1 -p cbr -e 532 -c 2 -a 0 -i 122 -k RTR
+ -t 44.258131118 -s 2 -d -1 -p cbr -e 512 -c 2 -a 0 -i 132 -k AGT 
- -t 44.258131118 -s 2 -d -1 -p cbr -e 512 -c 2 -a 0 -i 132 -k AGT
h -t 44.258131118 -s 2 -d -1 -p cbr -e 512 -c 2 -a 0 -i 132 -k AGT
d -t 44.258131118 -s 2 -d -1 -p cbr -e 532 -c 2 -a 0 -i 121 -k RTR
+ -t 44.282351528 -s 2 -d -1 -p cbr -e 512 -c 2 -a 0 -i 133 -k AGT 
- -t 44.282351528 -s 2 -d -1 -p cbr -e 512 -c 2 -a 0 -i 133 -k AGT
h -t 44.282351528 -s 2 -d -1 -p cbr -e 512 -c 2 -a 0 -i 133 -k AGT
d -t 44.282351528 -s 2 -d -1 -p cbr -e 532 -c 2 -a 0 -i 124 -k RTR
+ -t 44.317626481 -s 2 -d -1 -p cbr -e 512 -c 2 -a 0 -i 134 -k AGT 
- -t 44.317626481 -s 2 -d -1 -p cbr -e 512 -c 2 -a 0 -i 134 -k AGT
h -t 44.317626481 -s 2 -d -1 -p cbr -e 512 -c 2 -a 0 -i 134 -k AGT
d -t 44.317626481 -s 2 -d -1 -p cbr -e 532 -c 2 -a 0 -i 123 -k RTR
+ -t 44.320539461 -s 2 -d -1 -p cbr -e 512 -c 2 -a 0 -i 135 -k AGT 
- -t 44.320539461 -s 2 -d -1 -p cbr -e 512 -c 2 -a 0 -i 135 -k AGT
h -t 44.320539461 -s 2 -d -1 -p cbr -e 512 -c 2 -a 0 -i 135 -k AGT
d -t 44.320539461 -s 2 -d -1 -p cbr -e 532 -c 2 -a 0 -i 126 -k RTR
+ -t 44.366083484 -s 2 -d -1 -p cbr -e 512 -c 2 -a 0 -i 136 -k AGT 
- -t 44.366083484 -s 2 -d -1 -p cbr -e 512 -c 2 -a 0 -i 136 -k AGT