M 2.00000 0 (422.72, 589.71, 0.00), (251.81, 525.67), 4.32
M 2.00000 1 (571.19, 276.38, 0.00), (258.45, 108.39), 8.94
M 2.00000 2 (89.64, 439.33, 0.00), (71.99, 533.27), 0.54
M 2.00000 3 (481.86, 312.84, 0.00), (634.71, 468.03), 4.71
M 2.00000 4 (404.35, 174.70, 0.00), (296.11, 636.04), 1.09
s 40.557023746 _2_ AGT  --- 24 cbr 512 [0 0 0 0] ------- [2:0 3:0 32 0] [0] 0 16777215
s 40.598634468 _2_ AGT  --- 25 cbr 512 [0 0 0 0] ------- [2:0 3:0 32 0] [1] 0 16777215
s 40.658418958 _2_ AGT  --- 26 cbr 512 [0 0 0 0] ------- [2:0 3:0 32 0] [2] 0 16777215
s 40.729015918 _2_ AGT  --- 27 cbr 512 [0 0 0 0] ------- [2:0 3:0 32 0] [3] 0 16777215
s 40.755655536 _2_ AGT  --- 28 cbr 512 [0 0 0 0] ------- [2:0 3:0 32 0] [4] 0 16777215
s 40.798917902 _2_ AGT  --- 29 cbr 512 [0 0 0 0] ------- [2:0 3:0 32 0] [5] 0 16777215
D 40.798917902 _2_ RTR  IFQ 24 cbr 532 [0 0 0 0] ------- [2:0 3:0 32 0] [0] 0 16777215
s 40.839167351 _2_ AGT  --- 31 cbr 512 [0 0 0 0] ------- [2:0 3:0 32 0] [6] 0 16777215
D 40.839167351 _2_ RTR  IFQ 25 cbr 532 [0 0 0 0] ------- [2:0 3:0 32 0] [1] 0 16777215
s 40.904458942 _2_ AGT  --- 32 cbr 512 [0 0 0 0] ------- [2:0 3:0 32 0] [7] 0 16777215
D 40.904458942 _2_ RTR  IFQ 26 cbr 532 [0 0 0 0] ------- [2:0 3:0 32 0] [2] 0 16777215
s 40.938019893 _2_ AGT  --- 33 cbr 512 [0 0 0 0] ------- [2:0 3:0 32 0] [8] 0 16777215
D 40.938019893 _2_ RTR  IFQ 27 cbr 532 [0 0 0 0] ------- [2:0 3:0 32 0] [3] 0 16777215
s 40.964616964 _2_ AGT  --- 34 cbr 512 [0 0 0 0] ------- [2:0 3:0 32 0] [9] 0 16777215
D 40.964616964 _2_ RTR  IFQ 28 cbr 532 [0 0 0 0] ------- [2:0 3:0 32 0] [4] 0 16777215
s 41.027378738 _2_ AGT  --- 35 cbr 512 [0 0 0 0] ------- [2:0 3:0 32 0] [10] 0 16777215
D 41.027378738 _2_ RTR  IFQ 29 cbr 532 [0 0 0 0] ------- [2:0 3:0 32 0] [5] 0 16777215
s 41.083146569 _2_ AGT  --- 36 cbr 512 [0 0 0 0] ------- [2:0 3:0 32 0] [11] 0 16777215
D 41.083146569 _2_ RTR  IFQ 31 cbr 532 [0 0 0 0] ------- [2:0 3:0 32 0] [6] 0 16777215
s 41.147627988 _2_ AGT  --- 37 cbr 512 [0 0 0 0] ------- [2:0 3:0 32 0] [12] 0 16777215
D 41.147627988 _2_ RTR  IFQ 32 cbr 532 [0 0 0 0] ------- [2:0 3:0 32 0] [7] 0 16777215
s 41.198665331 _2_ AGT  --- 38 cbr 512 [0 0 0 0] ------- [2:0 3:0 32 0] [13] 0 16777215
D 41.198665331 _2_ RTR  IFQ 33 cbr 532 [0 0 0 0] ------- [2:0 3:0 32 0] [8] 0 16777215
s 41.246228404 _2_ AGT  --- 39 cbr 512 [0 0 0 0] ------- [2:0 3:0 32 0] [14] 0 16777215
D 41.246228404 _2_ RTR  IFQ 34 cbr 532 [0 0 0 0] ------- [2:0 3:0 32 0] [9] 0 16777215
s 41.281609160 _2_ AGT  --- 40 cbr 512 [0 0 0 0] ------- [2:0 3:0 32 0] [15] 0 16777215
D 41.281609160 _2_ RTR  IFQ 35 cbr 532 [0 0 0 0] ------- [2:0 3:0 32 0] [10] 0 16777215
s 41.307409019 _2_ AGT  --- 41 cbr 512 [0 0 0 0] ------- [2:0 3:0 32 0] [16] 0 16777215
D 41.307409019 _2_ RTR  IFQ 36 cbr 532 [0 0 0 0] ------- [2:0 3:0 32 0] [11] 0 16777215
s 41.354404740 _2_ AGT  --- 42 cbr 512 [0 0 0 0] ------- [2:0 3:0 32 0] [17] 0 16777215
D 41.354404740 _2_ RTR  IFQ 37 cbr 532 [0 0 0 0] ------- [2:0 3:0 32 0] [12] 0 16777215
s 41.401265849 _2_ AGT  --- 43 cbr 512 [0 0 0 0] ------- [2:0 3:0 32 0] [18] 0 16777215
D 41.401265849 _2_ RTR  IFQ 38 cbr 532 [0 0 0 0] ------- [2:0 3:0 32 0] [13] 0 16777215
s 41.442826449 _2_ AGT  --- 44 cbr 512 [0 0 0 0] ------- [2:0 3:0 32 0] [19] 0 16777215
D 41.442826449 _2_ RTR  IFQ 39 cbr 532 [0 0 0 0] ------- [2:0 3:0 32 0] [14] 0 16777215
s 41.473785305 _2_ AGT  --- 45 cbr 512 [0 0 0 0] ------- [2:0 3:0 32 0] [20] 0 16777215
D 41.473785305 _2_ RTR  IFQ 40 cbr 532 [0 0 0 0] ------- [2:0 3:0 32 0] [15] 0 16777215
s 41.543756037 _2_ AGT  --- 46 cbr 512 [0 0 0 0] ------- [2:0 3:0 32 0] [21] 0 16777215
D 41.543756037 _2_ RTR  IFQ 41 cbr 532 [0 0 0 0] ------- [2:0 3:0 32 0] [16] 0 16777215
s 41.579463639 _2_ AGT  --- 47 cbr 512 [0 0 0 0] ------- [2:0 3:0 32 0] [22] 0 16777215
D 41.579463639 _2_ RTR  IFQ 42 cbr 532 [0 0 0 0] ------- [2:0 3:0 32 0] [17] 0 16777215
s 41.625983881 _2_ AGT  --- 48 cbr 512 [0 0 0 0] ------- [2:0 3:0 32 0] [23] 0 16777215
D 41.625983881 _2_ RTR  IFQ 43 cbr 532 [0 0 0 0] ------- [2:0 3:0 32 0] [18] 0 16777215
s 41.672130500 _2_ AGT  --- 50 cbr 512 [0 0 0 0] ------- [2:0 3:0 32 0] [24] 0 16777215
D 41.672130500 _2_ RTR  IFQ 44 cbr 532 [0 0 0 0] ------- [2:0 3:0 32 0] [19] 0 16777215
M 41.69026 1 (258.45, 108.39, 0.00), (258.45, 108.39), 0.00
s 41.728274994 _2_ AGT  --- 51 cbr 512 [0 0 0 0] ------- [2:0 3:0 32 0] [25] 0 16777215
D 41.728274994 _2_ RTR  IFQ 45 cbr 532 [0 0 0 0] ------- [2:0 3:0 32 0] [20] 0 16777215
s 41.795814134 _2_ AGT  --- 52 cbr 512 [0 0 0 0] ------- [2:0 3:0 32 0] [26] 0 16777215
D 41.795814134 _2_ RTR  IFQ 46 cbr 532 [0 0 0 0] ------- [2:0 3:0 32 0] [21] 0 16777215
s 41.828739820 _2_ AGT  --- 53 cbr 512 [0 0 0 0] ------- [2:0 3:0 32 0] [27] 0 16777215
D 41.828739820 _2_ RTR  IFQ 47 cbr 532 [0 0 0 0] ------- [2:0 3:0 32 0] [22] 0 16777215
s 41.865516854 _2_ AGT  --- 54 cbr 512 [0 0 0 0] ------- [2:0 3:0 32 0] [28] 0 16777215
D 41.865516854 _2_ RTR  IFQ 48 cbr 532 [0 0 0 0] ------- [2:0 3:0 32 0] [23] 0 16777215
s 41.893741305 _2_ AGT  --- 55 cbr 512 [0 0 0 0] ------- [2:0 3:0 32 0] [29] 0 16777215
D 41.893741305 _2_ RTR  IFQ 50 cbr 532 [0 0 0 0] ------- [2:0 3:0 32 0] [24] 0 16777215
s 41.927575546 _2_ AGT  --- 56 cbr 512 [0 0 0 0] ------- [2:0 3:0 32 0] [30] 0 16777215
D 41.927575546 _2_ RTR  IFQ 51 cbr 532 [0 0 0 0] ------- [2:0 3:0 32 0] [25] 0 16777215
s 41.996142787 _2_ AGT  --- 57 cbr 512 [0 0 0 0] ------- [2:0 3:0 32 0] [31] 0 16777215
D 41.996142787 _2_ RTR  IFQ 52 cbr 532 [0 0 0 0] ------- [2:0 3:0 32 0] [26] 0 16777215
s 42.023117964 _2_ AGT  --- 58 cbr 512 [0 0 0 0] ------- [2:0 3:0 32 0] [32] 0 16777215
D 42.023117964 _2_ RTR  IFQ 53 cbr 532 [0 0 0 0] ------- [2:0 3:0 32 0] [27] 0 16777215
s 42.077043025 _2_ AGT  --- 59 cbr 512 [0 0 0 0] ------- [2:0 3:0 32 0] [33] 0 16777215
D 42.077043025 _2_ RTR  IFQ 54 cbr 532 [0 0 0 0] ------- [2:0 3:0 32 0] [28] 0 16777215
s 42.137353434 _2_ AGT  --- 60 cbr 512 [0 0 0 0] ------- [2:0 3:0 32 0] [34] 0 16777215
D 42.137353434 _2_ RTR  IFQ 55 cbr 532 [0 0 0 0] ------- [2:0 3:0 32 0] [29] 0 16777215
s 42.173694969 _2_ AGT  --- 61 cbr 512 [0 0 0 0] ------- [2:0 3:0 32 0] [35] 0 16777215
D 42.173694969 _2_ RTR  IFQ 56 cbr 532 [0 0 0 0] ------- [2:0 3:0 32 0] [30] 0 16777215
s 42.240207034 _2_ AGT  --- 62 cbr 512 [0 0 0 0] ------- [2:0 3:0 32 0] [36] 0 16777215
D 42.240207034 _2_ RTR  IFQ 57 cbr 532 [0 0 0 0] ------- [2:0 3:0 32 0] [31] 0 16777215
s 42.268141930 _2_ AGT  --- 63 cbr 512 [0 0 0 0] ------- [2:0 3:0 32 0] [37] 0 16777215
D 42.268141930 _2_ RTR  IFQ 58 cbr 532 [0 0 0 0] ------- [2:0 3:0 32 0] [32] 0 16777215
s 42.310139997 _2_ AGT  --- 64 cbr 512 [0 0 0 0] ------- [2:0 3:0 32 0] [38] 0 16777215
D 42.310139997 _2_ RTR  IFQ 59 cbr 532 [0 0 0 0] ------- [2:0 3:0 32 0] [33] 0 16777215
s 42.374841896 _2_ AGT  --- 65 cbr 512 [0 0 0 0] ------- [2:0 3:0 32 0] [39] 0 16777215
D 42.374841896 _2_ RTR  IFQ 60 cbr 532 [0 0 0 0] ------- [2:0 3:0 32 0] [34] 0 16777215
s 42.431695868 _2_ AGT  --- 66 cbr 512 [0 0 0 0] ------- [2:0 3:0 32 0] [40] 0 16777215
D 42.431695868 _2_ RTR  IFQ 61 cbr 532 [0 0 0 0] ------- [2:0 3:0 32 0] [35] 0 16777215
s 42.478366382 _2_ AGT  --- 67 cbr 512 [0 0 0 0] ------- [2:0 3:0 32 0] [41] 0 16777215
D 42.478366382 _2_ RTR  IFQ 62 cbr 532 [0 0 0 0] ------- [2:0 3:0 32 0] [36] 0 16777215
s 42.514815226 _2_ AGT  --- 68 cbr 512 [0 0 0 0] ------- [2:0 3:0 32 0] [42] 0 16777215
D 42.514815226 _2_ RTR  IFQ 63 cbr 532 [0 0 0 0] ------- [2:0 3:0 32 0] [37] 0 16777215
s 42.561907381 _2_ AGT  --- 69 cbr 512 [0 0 0 0] ------- [2:0 3:0 32 0] [43] 0 16777215
D 42.561907381 _2_ RTR  IFQ 64 cbr 532 [0 0 0 0] ------- [2:0 3:0 32 0] [38] 0 16777215
s 42.633903324 _2_ AGT  --- 70 cbr 512 [0 0 0 0] ------- [2:0 3:0 32 0] [44] 0 16777215
D 42.633903324 _2_ RTR  IFQ 65 cbr 532 [0 0 0 0] ------- [2:0 3:0 32 0] [39] 0 16777215
s 42.681902011 _2_ AGT  --- 71 cbr 512 [0 0 0 0] ------- [2:0 3:0 32 0] [45] 0 16777215
D 42.681902011 _2_ RTR  IFQ 66 cbr 532 [0 0 0 0] ------- [2:0 3:0 32 0] [40] 0 16777215
s 42.751973918 _2_ AGT  --- 72 cbr 512 [0 0 0 0] ------- [2:0 3:0 32 0] [46] 0 16777215
D 42.751973918 _2_ RTR  IFQ 67 cbr 532 [0 0 0 0] ------- [2:0 3:0 32 0] [41] 0 16777215
s 42.824859894 _2_ AGT  --- 73 cbr 512 [0 0 0 0] ------- [2:0 3:0 32 0] [47] 0 16777215
D 42.824859894 _2_ RTR  IFQ 68 cbr 532 [0 0 0 0] ------- [2:0 3:0 32 0] [42] 0 16777215
s 42.895145250 _2_ AGT  --- 74 cbr 512 [0 0 0 0] ------- [2:0 3:0 32 0] [48] 0 16777215
D 42.895145250 _2_ RTR  IFQ 69 cbr 532 [0 0 0 0] ------- [2:0 3:0 32 0] [43] 0 16777215
s 42.898102734 _2_ AGT  --- 75 cbr 512 [0 0 0 0] ------- [2:1 4:0 32 0] [0] 0 16777215
s 42.927734945 _2_ AGT  --- 76 cbr 512 [0 0 0 0] ------- [2:0 3:0 32 0] [49] 0 16777215
D 42.927734945 _2_ RTR  IFQ 70 cbr 532 [0 0 0 0] ------- [2:0 3:0 32 0] [44] 0 16777215
s 42.970353938 _2_ AGT  --- 77 cbr 512 [0 0 0 0] ------- [2:1 4:0 32 0] [1] 0 16777215
s 42.979746531 _2_ AGT  --- 78 cbr 512 [0 0 0 0] ------- [2:0 3:0 32 0] [50] 0 16777215
D 42.979746531 _2_ RTR  IFQ 71 cbr 532 [0 0 0 0] ------- [2:0 3:0 32 0] [45] 0 16777215
s 43.008070783 _2_ AGT  --- 79 cbr 512 [0 0 0 0] ------- [2:0 3:0 32 0] [51] 0 16777215
D 43.008070783 _2_ RTR  IFQ 72 cbr 532 [0 0 0 0] ------- [2:0 3:0 32 0] [46] 0 16777215
s 43.022121568 _2_ AGT  --- 80 cbr 512 [0 0 0 0] ------- [2:1 4:0 32 0] [2] 0 16777215
s 43.073023061 _2_ AGT  --- 81 cbr 512 [0 0 0 0] ------- [2:1 4:0 32 0] [3] 0 16777215
s 43.081662315 _2_ AGT  --- 82 cbr 512 [0 0 0 0] ------- [2:0 3:0 32 0] [52] 0 16777215
D 43.081662315 _2_ RTR  IFQ 73 cbr 532 [0 0 0 0] ------- [2:0 3:0 32 0] [47] 0 16777215
s 43.142072040 _2_ AGT  --- 83 cbr 512 [0 0 0 0] ------- [2:1 4:0 32 0] [4] 0 16777215
s 43.143151685 _2_ AGT  --- 84 cbr 512 [0 0 0 0] ------- [2:0 3:0 32 0] [53] 0 16777215
D 43.143151685 _2_ RTR  IFQ 74 cbr 532 [0 0 0 0] ------- [2:0 3:0 32 0] [48] 0 16777215
s 43.180215084 _2_ AGT  --- 85 cbr 512 [0 0 0 0] ------- [2:1 4:0 32 0] [5] 0 16777215
D 43.180215084 _2_ RTR  IFQ 75 cbr 532 [0 0 0 0] ------- [2:1 4:0 32 0] [0] 0 16777215
s 43.192127494 _2_ AGT  --- 86 cbr 512 [0 0 0 0] ------- [2:0 3:0 32 0] [54] 0 16777215
D 43.192127494 _2_ RTR  IFQ 76 cbr 532 [0 0 0 0] ------- [2:0 3:0 32 0] [49] 0 16777215
s 43.227421618 _2_ AGT  --- 87 cbr 512 [0 0 0 0] ------- [2:0 3:0 32 0] [55] 0 16777215
D 43.227421618 _2_ RTR  IFQ 78 cbr 532 [0 0 0 0] ------- [2:0 3:0 32 0] [50] 0 16777215
s 43.242699744 _2_ AGT  --- 88 cbr 512 [0 0 0 0] ------- [2:1 4:0 32 0] [6] 0 16777215
D 43.242699744 _2_ RTR  IFQ 77 cbr 532 [0 0 0 0] ------- [2:1 4:0 32 0] [1] 0 16777215
s 43.286190496 _2_ AGT  --- 89 cbr 512 [0 0 0 0] ------- [2:0 3:0 32 0] [56] 0 16777215
D 43.286190496 _2_ RTR  IFQ 79 cbr 532 [0 0 0 0] ------- [2:0 3:0 32 0] [51] 0 16777215
s 43.300562568 _2_ AGT  --- 90 cbr 512 [0 0 0 0] ------- [2:1 4:0 32 0] [7] 0 16777215
D 43.300562568 _2_ RTR  IFQ 80 cbr 532 [0 0 0 0] ------- [2:1 4:0 32 0] [2] 0 16777215
s 43.319283292 _2_ AGT  --- 91 cbr 512 [0 0 0 0] ------- [2:0 3:0 32 0] [57] 0 16777215
D 43.319283292 _2_ RTR  IFQ 82 cbr 532 [0 0 0 0] ------- [2:0 3:0 32 0] [52] 0 16777215
s 43.338799988 _2_ AGT  --- 92 cbr 512 [0 0 0 0] ------- [2:1 4:0 32 0] [8] 0 16777215
D 43.338799988 _2_ RTR  IFQ 81 cbr 532 [0 0 0 0] ------- [2:1 4:0 32 0] [3] 0 16777215
s 43.363215157 _2_ AGT  --- 93 cbr 512 [0 0 0 0] ------- [2:0 3:0 32 0] [58] 0 16777215
D 43.363215157 _2_ RTR  IFQ 84 cbr 532 [0 0 0 0] ------- [2:0 3:0 32 0] [53] 0 16777215
s 43.394386397 _2_ AGT  --- 94 cbr 512 [0 0 0 0] ------- [2:1 4:0 32 0] [9] 0 16777215
D 43.394386397 _2_ RTR  IFQ 83 cbr 532 [0 0 0 0] ------- [2:1 4:0 32 0] [4] 0 16777215
s 43.420987241 _2_ AGT  --- 95 cbr 512 [0 0 0 0] ------- [2:0 3:0 32 0] [59] 0 16777215
D 43.420987241 _2_ RTR  IFQ 86 cbr 532 [0 0 0 0] ------- [2:0 3:0 32 0] [54] 0 16777215
s 43.460008666 _2_ AGT  --- 96 cbr 512 [0 0 0 0] ------- [2:0 3:0 32 0] [60] 0 16777215
D 43.460008666 _2_ RTR  IFQ 87 cbr 532 [0 0 0 0] ------- [2:0 3:0 32 0] [55] 0 16777215
s 43.462114171 _2_ AGT  --- 97 cbr 512 [0 0 0 0] ------- [2:1 4:0 32 0] [10] 0 16777215
D 43.462114171 _2_ RTR  IFQ 85 cbr 532 [0 0 0 0] ------- [2:1 4:0 32 0] [5] 0 16777215
s 43.493331140 _2_ AGT  --- 98 cbr 512 [0 0 0 0] ------- [2:0 3:0 32 0] [61] 0 16777215
D 43.493331140 _2_ RTR  IFQ 89 cbr 532 [0 0 0 0] ------- [2:0 3:0 32 0] [56] 0 16777215
s 43.496759382 _2_ AGT  --- 99 cbr 512 [0 0 0 0] ------- [2:1 4:0 32 0] [11] 0 16777215
D 43.496759382 _2_ RTR  IFQ 88 cbr 532 [0 0 0 0] ------- [2:1 4:0 32 0] [6] 0 16777215
s 43.520409790 _2_ AGT  --- 100 cbr 512 [0 0 0 0] ------- [2:0 3:0 32 0] [62] 0 16777215
D 43.520409790 _2_ RTR  IFQ 91 cbr 532 [0 0 0 0] ------- [2:0 3:0 32 0] [57] 0 16777215
s 43.525629248 _2_ AGT  --- 101 cbr 512 [0 0 0 0] ------- [2:1 4:0 32 0] [12] 0 16777215
D 43.525629248 _2_ RTR  IFQ 90 cbr 532 [0 0 0 0] ------- [2:1 4:0 32 0] [7] 0 16777215
s 43.551380581 _2_ AGT  --- 102 cbr 512 [0 0 0 0] ------- [2:0 3:0 32 0] [63] 0 16777215
D 43.551380581 _2_ RTR  IFQ 93 cbr 532 [0 0 0 0] ------- [2:0 3:0 32 0] [58] 0 16777215
s 43.553325052 _2_ AGT  --- 103 cbr 512 [0 0 0 0] ------- [2:1 4:0 32 0] [13] 0 16777215
D 43.553325052 _2_ RTR  IFQ 92 cbr 532 [0 0 0 0] ------- [2:1 4:0 32 0] [8] 0 16777215
s 43.589041921 _2_ AGT  --- 104 cbr 512 [0 0 0 0] ------- [2:1 4:0 32 0] [14] 0 16777215
D 43.589041921 _2_ RTR  IFQ 94 cbr 532 [0 0 0 0] ------- [2:1 4:0 32 0] [9] 0 16777215
s 43.594337288 _2_ AGT  --- 105 cbr 512 [0 0 0 0] ------- [2:0 3:0 32 0] [64] 0 16777215
D 43.594337288 _2_ RTR  IFQ 95 cbr 532 [0 0 0 0] ------- [2:0 3:0 32 0] [59] 0 16777215
s 43.616809252 _2_ AGT  --- 106 cbr 512 [0 0 0 0] ------- [2:1 4:0 32 0] [15] 0 16777215
D 43.616809252 _2_ RTR  IFQ 97 cbr 532 [0 0 0 0] ------- [2:1 4:0 32 0] [10] 0 16777215
s 43.667029708 _2_ AGT  --- 107 cbr 512 [0 0 0 0] ------- [2:0 3:0 32 0] [65] 0 16777215
D 43.667029708 _2_ RTR  IFQ 96 cbr 532 [0 0 0 0] ------- [2:0 3:0 32 0] [60] 0 16777215
s 43.682919799 _2_ AGT  --- 108 cbr 512 [0 0 0 0] ------- [2:1 4:0 32 0] [16] 0 16777215
D 43.682919799 _2_ RTR  IFQ 99 cbr 532 [0 0 0 0] ------- [2:1 4:0 32 0] [11] 0 16777215
M 43.69026 1 (258.45, 108.39, 0.00), (458.03, 555.58), 7.38
s 43.727447311 _2_ AGT  --- 109 cbr 512 [0 0 0 0] ------- [2:0 3:0 32 0] [66] 0 16777215
D 43.727447311 _2_ RTR  IFQ 98 cbr 532 [0 0 0 0] ------- [2:0 3:0 32 0] [61] 0 16777215
s 43.729437864 _2_ AGT  --- 110 cbr 512 [0 0 0 0] ------- [2:1 4:0 32 0] [17] 0 16777215
D 43.729437864 _2_ RTR  IFQ 101 cbr 532 [0 0 0 0] ------- [2:1 4:0 32 0] [12] 0 16777215
s 43.774078897 _2_ AGT  --- 111 cbr 512 [0 0 0 0] ------- [2:1 4:0 32 0] [18] 0 16777215
D 43.774078897 _2_ RTR  IFQ 103 cbr 532 [0 0 0 0] ------- [2:1 4:0 32 0] [13] 0 16777215
s 43.793949582 _2_ AGT  --- 112 cbr 512 [0 0 0 0] ------- [2:0 3:0 32 0] [67] 0 16777215
D 43.793949582 _2_ RTR  IFQ 100 cbr 532 [0 0 0 0] ------- [2:0 3:0 32 0] [62] 0 16777215
s 43.825441658 _2_ AGT  --- 113 cbr 512 [0 0 0 0] ------- [2:0 3:0 32 0] [68] 0 16777215
D 43.825441658 _2_ RTR  IFQ 102 cbr 532 [0 0 0 0] ------- [2:0 3:0 32 0] [63] 0 16777215
s 43.826252513 _2_ AGT  --- 114 cbr 512 [0 0 0 0] ------- [2:1 4:0 32 0] [19] 0 16777215
D 43.826252513 _2_ RTR  IFQ 104 cbr 532 [0 0 0 0] ------- [2:1 4:0 32 0] [14] 0 16777215
s 43.872103982 _2_ AGT  --- 115 cbr 512 [0 0 0 0] ------- [2:1 4:0 32 0] [20] 0 16777215
D 43.872103982 _2_ RTR  IFQ 106 cbr 532 [0 0 0 0] ------- [2:1 4:0 32 0] [15] 0 16777215
s 43.879453269 _2_ AGT  --- 116 cbr 512 [0 0 0 0] ------- [2:0 3:0 32 0] [69] 0 16777215
D 43.879453269 _2_ RTR  IFQ 105 cbr 532 [0 0 0 0] ------- [2:0 3:0 32 0] [64] 0 16777215
s 43.938447888 _2_ AGT  --- 117 cbr 512 [0 0 0 0] ------- [2:1 4:0 32 0] [21] 0 16777215
D 43.938447888 _2_ RTR  IFQ 108 cbr 532 [0 0 0 0] ------- [2:1 4:0 32 0] [16] 0 16777215
s 43.944747934 _2_ AGT  --- 118 cbr 512 [0 0 0 0] ------- [2:0 3:0 32 0] [70] 0 16777215
D 43.944747934 _2_ RTR  IFQ 107 cbr 532 [0 0 0 0] ------- [2:0 3:0 32 0] [65] 0 16777215
s 43.969924342 _2_ AGT  --- 119 cbr 512 [0 0 0 0] ------- [2:0 3:0 32 0] [71] 0 16777215
D 43.969924342 _2_ RTR  IFQ 109 cbr 532 [0 0 0 0] ------- [2:0 3:0 32 0] [66] 0 16777215
s 44.006316523 _2_ AGT  --- 120 cbr 512 [0 0 0 0] ------- [2:1 4:0 32 0] [22] 0 16777215
D 44.006316523 _2_ RTR  IFQ 110 cbr 532 [0 0 0 0] ------- [2:1 4:0 32 0] [17] 0 16777215
s 44.034605874 _2_ AGT  --- 121 cbr 512 [0 0 0 0] ------- [2:0 3:0 32 0] [72] 0 16777215
D 44.034605874 _2_ RTR  IFQ 112 cbr 532 [0 0 0 0] ------- [2:0 3:0 32 0] [67] 0 16777215
s 44.035120132 _2_ AGT  --- 122 cbr 512 [0 0 0 0] ------- [2:1 4:0 32 0] [23] 0 16777215
D 44.035120132 _2_ RTR  IFQ 111 cbr 532 [0 0 0 0] ------- [2:1 4:0 32 0] [18] 0 16777215
s 44.070175369 _2_ AGT  --- 123 cbr 512 [0 0 0 0] ------- [2:0 3:0 32 0] [73] 0 16777215
D 44.070175369 _2_ RTR  IFQ 113 cbr 532 [0 0 0 0] ------- [2:0 3:0 32 0] [68] 0 16777215
s 44.102034918 _2_ AGT  --- 124 cbr 512 [0 0 0 0] ------- [2:1 4:0 32 0] [24] 0 16777215
D 44.102034918 _2_ RTR  IFQ 114 cbr 532 [0 0 0 0] ------- [2:1 4:0 32 0] [19] 0 16777215
s 44.119037706 _2_ AGT  --- 125 cbr 512 [0 0 0 0] ------- [2:0 3:0 32 0] [74] 0 16777215
D 44.119037706 _2_ RTR  IFQ 116 cbr 532 [0 0 0 0] ------- [2:0 3:0 32 0] [69] 0 16777215
s 44.134991879 _2_ AGT  --- 126 cbr 512 [0 0 0 0] ------- [2:1 4:0 32 0] [25] 0 16777215
D 44.134991879 _2_ RTR  IFQ 115 cbr 532 [0 0 0 0] ------- [2:1 4:0 32 0] [20] 0 16777215
s 44.157525481 _2_ AGT  --- 127 cbr 512 [0 0 0 0] ------- [2:0 3:0 32 0] [75] 0 16777215
D 44.157525481 _2_ RTR  IFQ 118 cbr 532 [0 0 0 0] ------- [2:0 3:0 32 0] [70] 0 16777215
s 44.160988595 _2_ AGT  --- 128 cbr 512 [0 0 0 0] ------- [2:1 4:0 32 0] [26] 0 16777215
D 44.160988595 _2_ RTR  IFQ 117 cbr 532 [0 0 0 0] ------- [2:1 4:0 32 0] [21] 0 16777215
s 44.207582646 _2_ AGT  --- 129 cbr 512 [0 0 0 0] ------- [2:1 4:0 32 0] [27] 0 16777215
D 44.207582646 _2_ RTR  IFQ 120 cbr 532 [0 0 0 0] ------- [2:1 4:0 32 0] [22] 0 16777215
s 44.217733688 _2_ AGT  --- 130 cbr 512 [0 0 0 0] ------- [2:0 3:0 32 0] [76] 0 16777215
D 44.217733688 _2_ RTR  IFQ 119 cbr 532 [0 0 0 0] ------- [2:0 3:0 32 0] [71] 0 16777215
M 44.23077 0 (251.81, 525.67, 0.00), (251.81, 525.67), 0.00
s 44.256954793 _2_ AGT  --- 131 cbr 512 [0 0 0 0] ------- [2:1 4:0 32 0] [28] 0 16777215
D 44.256954793 _2_ RTR  IFQ 122 cbr 532 [0 0 0 0] ------- [2:1 4:0 32 0] [23] 0 16777215
s 44.258131118 _2_ AGT  --- 132 cbr 512 [0 0 0 0] ------- [2:0 3:0 32 0] [77] 0 16777215
D 44.258131118 _2_ RTR  IFQ 121 cbr 532 [0 0 0 0] ------- [2:0 3:0 32 0] [72] 0 16777215
s 44.282351528 _2_ AGT  --- 133 cbr 512 [0 0 0 0] ------- [2:1 4:0 32 0] [29] 0 16777215
D 44.282351528 _2_ RTR  IFQ 124 cbr 532 [0 0 0 0] ------- [2:1 4:0 32 0] [24] 0 16777215
s 44.317626481 _2_ AGT  --- 134 cbr 512 [0 0 0 0] ------- [2:0 3:0 32 0] [78] 0 16777215
D 44.317626481 _2_ RTR  IFQ 123 cbr 532 [0 0 0 0] ------- [2:0 3:0 32 0] [73] 0 16777215
s 44.320539461 _2_ AGT  --- 135 cbr 512 [0 0 0 0] ------- [2:1 4:0 32 0] [30] 0 16777215
D 44.320539461 _2_ RTR  IFQ 126 cbr 532 [0 0 0 0] ------- [2:1 4:0 32 0] [25] 0 16777215
s 44.366083484 _2_ AGT  --- 136 cbr 512 [0 0 0 0] ------- [2:0 3:0 32 0] [79] 0 16777215
D 44.366083484 _2_ RTR  IFQ 125 cbr 532 [0 0 0 0] ------- [2:0 3:0 32 0] [74] 0 16777215
s 44.390455869 _2_ AGT  --- 137 cbr 512 [0 0 0 0] ------- [2:1 4:0 32 0] [31] 0 16777215
D 44.390455869 _2_ RTR  IFQ 128 cbr 532 [0 0 0 0] ------- [2:1 4:0 32 0] [26] 0 16777215
s 44.408745448 _2_ AGT  --- 138 cbr 512 [0 0 0 0] ------- [2:0 3:0 32 0] [80] 0 16777215
D 44.408745448 _2_ RTR  IFQ 127 cbr 532 [0 0 0 0] ------- [2:0 3:0 32 0] [75] 0 16777215
s 44.435736225 _2_ AGT  --- 139 cbr 512 [0 0 0 0] ------- [2:0 3:0 32 0] [81] 0 16777215
D 44.435736225 _2_ RTR  IFQ 130 cbr 532 [0 0 0 0] ------- [2:0 3:0 32 0] [76] 0 16777215
s 44.439333893 _2_ AGT  --- 140 cbr 512 [0 0 0 0] ------- [2:1 4:0 32 0] [32] 0 16777215
D 44.439333893 _2_ RTR  IFQ 129 cbr 532 [0 0 0 0] ------- [2:1 4:0 32 0] [27] 0 16777215
s 44.485965412 _2_ AGT  --- 141 cbr 512 [0 0 0 0] ------- [2:1 4:0 32 0] [33] 0 16777215
D 44.485965412 _2_ RTR  IFQ 131 cbr 532 [0 0 0 0] ------- [2:1 4:0 32 0] [28] 0 16777215
s 44.510099053 _2_ AGT  --- 142 cbr 512 [0 0 0 0] ------- [2:0 3:0 32 0] [82] 0 16777215
D 44.510099053 _2_ RTR  IFQ 132 cbr 532 [0 0 0 0] ------- [2:0 3:0 32 0] [77] 0 16777215
s 44.536220680 _2_ AGT  --- 143 cbr 512 [0 0 0 0] ------- [2:1 4:0 32 0] [34] 0 16777215
D 44.536220680 _2_ RTR  IFQ 133 cbr 532 [0 0 0 0] ------- [2:1 4:0 32 0] [29] 0 16777215
s 44.567224553 _2_ AGT  --- 144 cbr 512 [0 0 0 0] ------- [2:0 3:0 32 0] [83] 0 16777215
D 44.567224553 _2_ RTR  IFQ 134 cbr 532 [0 0 0 0] ------- [2:0 3:0 32 0] [78] 0 16777215
s 44.580787204 _2_ AGT  --- 145 cbr 512 [0 0 0 0] ------- [2:1 4:0 32 0] [35] 0 16777215
D 44.580787204 _2_ RTR  IFQ 135 cbr 532 [0 0 0 0] ------- [2:1 4:0 32 0] [30] 0 16777215
s 44.606045044 _2_ AGT  --- 146 cbr 512 [0 0 0 0] ------- [2:0 3:0 32 0] [84] 0 16777215
D 44.606045044 _2_ RTR  IFQ 136 cbr 532 [0 0 0 0] ------- [2:0 3:0 32 0] [79] 0 16777215
s 44.623550874 _2_ AGT  --- 147 cbr 512 [0 0 0 0] ------- [2:1 4:0 32 0] [36] 0 16777215
D 44.623550874 _2_ RTR  IFQ 137 cbr 532 [0 0 0 0] ------- [2:1 4:0 32 0] [31] 0 16777215
s 44.650327566 _2_ AGT  --- 148 cbr 512 [0 0 0 0] ------- [2:1 4:0 32 0] [37] 0 16777215
D 44.650327566 _2_ RTR  IFQ 140 cbr 532 [0 0 0 0] ------- [2:1 4:0 32 0] [32] 0 16777215
s 44.678460087 _2_ AGT  --- 149 cbr 512 [0 0 0 0] ------- [2:0 3:0 32 0] [85] 0 16777215
D 44.678460087 _2_ RTR  IFQ 138 cbr 532 [0 0 0 0] ------- [2:0 3:0 32 0] [80] 0 16777215
s 44.707703407 _2_ AGT  --- 150 cbr 512 [0 0 0 0] ------- [2:1 4:0 32 0] [38] 0 16777215
D 44.707703407 _2_ RTR  IFQ 141 cbr 532 [0 0 0 0] ------- [2:1 4:0 32 0] [33] 0 16777215
s 44.710945056 _2_ AGT  --- 151 cbr 512 [0 0 0 0] ------- [2:0 3:0 32 0] [86] 0 16777215
D 44.710945056 _2_ RTR  IFQ 139 cbr 532 [0 0 0 0] ------- [2:0 3:0 32 0] [81] 0 16777215
s 44.754940481 _2_ AGT  --- 152 cbr 512 [0 0 0 0] ------- [2:1 4:0 32 0] [39] 0 16777215
D 44.754940481 _2_ RTR  IFQ 143 cbr 532 [0 0 0 0] ------- [2:1 4:0 32 0] [34] 0 16777215
s 44.767526834 _2_ AGT  --- 153 cbr 512 [0 0 0 0] ------- [2:0 3:0 32 0] [87] 0 16777215
D 44.767526834 _2_ RTR  IFQ 142 cbr 532 [0 0 0 0] ------- [2:0 3:0 32 0] [82] 0 16777215
s 44.786460785 _2_ AGT  --- 154 cbr 512 [0 0 0 0] ------- [2:1 4:0 32 0] [40] 0 16777215
D 44.786460785 _2_ RTR  IFQ 145 cbr 532 [0 0 0 0] ------- [2:1 4:0 32 0] [35] 0 16777215
s 44.795294668 _2_ AGT  --- 155 cbr 512 [0 0 0 0] ------- [2:0 3:0 32 0] [88] 0 16777215
D 44.795294668 _2_ RTR  IFQ 144 cbr 532 [0 0 0 0] ------- [2:0 3:0 32 0] [83] 0 16777215
s 44.835564121 _2_ AGT  --- 156 cbr 512 [0 0 0 0] ------- [2:0 3:0 32 0] [89] 0 16777215
D 44.835564121 _2_ RTR  IFQ 146 cbr 532 [0 0 0 0] ------- [2:0 3:0 32 0] [84] 0 16777215
s 44.837280379 _2_ AGT  --- 157 cbr 512 [0 0 0 0] ------- [2:1 4:0 32 0] [41] 0 16777215
D 44.837280379 _2_ RTR  IFQ 147 cbr 532 [0 0 0 0] ------- [2:1 4:0 32 0] [36] 0 16777215
s 44.877096893 _2_ AGT  --- 158 cbr 512 [0 0 0 0] ------- [2:0 3:0 32 0] [90] 0 16777215
D 44.877096893 _2_ RTR  IFQ 149 cbr 532 [0 0 0 0] ------- [2:0 3:0 32 0] [85] 0 16777215
s 44.881041999 _2_ AGT  --- 159 cbr 512 [0 0 0 0] ------- [2:1 4:0 32 0] [42] 0 16777215
D 44.881041999 _2_ RTR  IFQ 148 cbr 532 [0 0 0 0] ------- [2:1 4:0 32 0] [37] 0 16777215
s 44.920788684 _2_ AGT  --- 160 cbr 512 [0 0 0 0] ------- [2:0 3:0 32 0] [91] 0 16777215
D 44.920788684 _2_ RTR  IFQ 151 cbr 532 [0 0 0 0] ------- [2:0 3:0 32 0] [86] 0 16777215
s 44.944889088 _2_ AGT  --- 161 cbr 512 [0 0 0 0] ------- [2:1 4:0 32 0] [43] 0 16777215
D 44.944889088 _2_ RTR  IFQ 150 cbr 532 [0 0 0 0] ------- [2:1 4:0 32 0] [38] 0 16777215
s 44.967183255 _2_ AGT  --- 162 cbr 512 [0 0 0 0] ------- [2:0 3:0 32 0] [92] 0 16777215
D 44.967183255 _2_ RTR  IFQ 153 cbr 532 [0 0 0 0] ------- [2:0 3:0 32 0] [87] 0 16777215
s 44.997068082 _2_ AGT  --- 163 cbr 512 [0 0 0 0] ------- [2:1 4:0 32 0] [44] 0 16777215
D 44.997068082 _2_ RTR  IFQ 152 cbr 532 [0 0 0 0] ------- [2:1 4:0 32 0] [39] 0 16777215
s 45.034248111 _2_ AGT  --- 164 cbr 512 [0 0 0 0] ------- [2:0 3:0 32 0] [93] 0 16777215
D 45.034248111 _2_ RTR  IFQ 155 cbr 532 [0 0 0 0] ------- [2:0 3:0 32 0] [88] 0 16777215
s 45.057123463 _2_ AGT  --- 165 cbr 512 [0 0 0 0] ------- [2:1 4:0 32 0] [45] 0 16777215
D 45.057123463 _2_ RTR  IFQ 154 cbr 532 [0 0 0 0] ------- [2:1 4:0 32 0] [40] 0 16777215
s 45.082311916 _2_ AGT  --- 166 cbr 512 [0 0 0 0] ------- [2:0 3:0 32 0] [94] 0 16777215
D 45.082311916 _2_ RTR  IFQ 156 cbr 532 [0 0 0 0] ------- [2:0 3:0 32 0] [89] 0 16777215
s 45.108128530 _2_ AGT  --- 167 cbr 512 [0 0 0 0] ------- [2:1 4:0 32 0] [46] 0 16777215
D 45.108128530 _2_ RTR  IFQ 157 cbr 532 [0 0 0 0] ------- [2:1 4:0 32 0] [41] 0 16777215
s 45.150107029 _2_ AGT  --- 168 cbr 512 [0 0 0 0] ------- [2:0 3:0 32 0] [95] 0 16777215
D 45.150107029 _2_ RTR  IFQ 158 cbr 532 [0 0 0 0] ------- [2:0 3:0 32 0] [90] 0 16777215
s 45.162161252 _2_ AGT  --- 169 cbr 512 [0 0 0 0] ------- [2:1 4:0 32 0] [47] 0 16777215
D 45.162161252 _2_ RTR  IFQ 159 cbr 532 [0 0 0 0] ------- [2:1 4:0 32 0] [42] 0 16777215
s 45.200592794 _2_ AGT  --- 170 cbr 512 [0 0 0 0] ------- [2:1 4:0 32 0] [48] 0 16777215
D 45.200592794 _2_ RTR  IFQ 161 cbr 532 [0 0 0 0] ------- [2:1 4:0 32 0] [43] 0 16777215
s 45.221296841 _2_ AGT  --- 171 cbr 512 [0 0 0 0] ------- [2:0 3:0 32 0] [96] 0 16777215
D 45.221296841 _2_ RTR  IFQ 160 cbr 532 [0 0 0 0] ------- [2:0 3:0 32 0] [91] 0 16777215
s 45.228848489 _2_ AGT  --- 172 cbr 512 [0 0 0 0] ------- [2:1 4:0 32 0] [49] 0 16777215
D 45.228848489 _2_ RTR  IFQ 163 cbr 532 [0 0 0 0] ------- [2:1 4:0 32 0] [44] 0 16777215
s 45.261936621 _2_ AGT  --- 173 cbr 512 [0 0 0 0] ------- [2:0 3:0 32 0] [97] 0 16777215
D 45.261936621 _2_ RTR  IFQ 162 cbr 532 [0 0 0 0] ------- [2:0 3:0 32 0] [92] 0 16777215
s 45.295980990 _2_ AGT  --- 174 cbr 512 [0 0 0 0] ------- [2:1 4:0 32 0] [50] 0 16777215
D 45.295980990 _2_ RTR  IFQ 165 cbr 532 [0 0 0 0] ------- [2:1 4:0 32 0] [45] 0 16777215
s 45.310587929 _2_ AGT  --- 175 cbr 512 [0 0 0 0] ------- [2:0 3:0 32 0] [98] 0 16777215
D 45.310587929 _2_ RTR  IFQ 164 cbr 532 [0 0 0 0] ------- [2:0 3:0 32 0] [93] 0 16777215
s 45.360736761 _2_ AGT  --- 176 cbr 512 [0 0 0 0] ------- [2:0 3:0 32 0] [99] 0 16777215
D 45.360736761 _2_ RTR  IFQ 166 cbr 532 [0 0 0 0] ------- [2:0 3:0 32 0] [94] 0 16777215
s 45.370347162 _2_ AGT  --- 177 cbr 512 [0 0 0 0] ------- [2:1 4:0 32 0] [51] 0 16777215
D 45.370347162 _2_ RTR  IFQ 167 cbr 532 [0 0 0 0] ------- [2:1 4:0 32 0] [46] 0 16777215
s 45.398175696 _2_ AGT  --- 178 cbr 512 [0 0 0 0] ------- [2:0 3:0 32 0] [100] 0 16777215
D 45.398175696 _2_ RTR  IFQ 168 cbr 532 [0 0 0 0] ------- [2:0 3:0 32 0] [95] 0 16777215
s 45.438380193 _2_ AGT  --- 179 cbr 512 [0 0 0 0] ------- [2:1 4:0 32 0] [52] 0 16777215
D 45.438380193 _2_ RTR  IFQ 169 cbr 532 [0 0 0 0] ------- [2:1 4:0 32 0] [47] 0 16777215
s 45.468956574 _2_ AGT  --- 180 cbr 512 [0 0 0 0] ------- [2:0 3:0 32 0] [101] 0 16777215
D 45.468956574 _2_ RTR  IFQ 171 cbr 532 [0 0 0 0] ------- [2:0 3:0 32 0] [96] 0 16777215
s 45.508517629 _2_ AGT  --- 181 cbr 512 [0 0 0 0] ------- [2:1 4:0 32 0] [53] 0 16777215
D 45.508517629 _2_ RTR  IFQ 170 cbr 532 [0 0 0 0] ------- [2:1 4:0 32 0] [48] 0 16777215
s 45.510406744 _2_ AGT  --- 182 cbr 512 [0 0 0 0] ------- [2:0 3:0 32 0] [102] 0 16777215
D 45.510406744 _2_ RTR  IFQ 173 cbr 532 [0 0 0 0] ------- [2:0 3:0 32 0] [97] 0 16777215
s 45.557023746 _2_ AGT  --- 183 tcp 40 [0 0 0 0] ------- [2:2 0:1 32 0] [0 0] 0 1
s 45.559065682 _2_ AGT  --- 184 cbr 512 [0 0 0 0] ------- [2:1 4:0 32 0] [54] 0 16777215
D 45.559065682 _2_ RTR  IFQ 172 cbr 532 [0 0 0 0] ------- [2:1 4:0 32 0] [49] 0 16777215
r 45.561714901 _0_ AGT  --- 183 tcp 60 [13a 0 2 800] ------- [2:2 0:1 32 0] [0 0] 1 1
s 45.561714901 _0_ AGT  --- 185 ack 40 [0 0 0 0] ------- [0:1 2:2 32 0] [0 0] 0 1
r 45.563752682 _2_ AGT  --- 185 ack 60 [13a 2 0 800] ------- [0:1 2:2 32 2] [0 0] 1 1
s 45.563752682 _2_ AGT  --- 186 tcp 552 [0 0 0 0] ------- [2:2 0:1 32 0] [1 0] 0 1
s 45.563752682 _2_ AGT  --- 187 tcp 552 [0 0 0 0] ------- [2:2 0:1 32 0] [2 0] 0 1
r 45.569826463 _0_ AGT  --- 186 tcp 572 [13a 0 2 800] ------- [2:2 0:1 32 0] [1 0] 1 1
s 45.569826463 _0_ AGT  --- 188 ack 40 [0 0 0 0] ------- [0:1 2:2 32 0] [1 0] 0 1
s 45.573841018 _2_ AGT  --- 189 cbr 512 [0 0 0 0] ------- [2:0 3:0 32 0] [103] 0 16777215
D 45.573841018 _2_ RTR  IFQ 175 cbr 532 [0 0 0 0] ------- [2:0 3:0 32 0] [98] 0 16777215
r 45.576000837 _0_ AGT  --- 187 tcp 572 [13a 0 2 800] ------- [2:2 0:1 32 0] [2 0] 1 1
s 45.576000837 _0_ AGT  --- 190 ack 40 [0 0 0 0] ------- [0:1 2:2 32 0] [2 0] 0 1
r 45.578118618 _2_ AGT  --- 188 ack 60 [13a 2 0 800] ------- [0:1 2:2 32 2] [1 0] 1 1
s 45.578118618 _2_ AGT  --- 191 tcp 552 [0 0 0 0] ------- [2:2 0:1 32 0] [3 0] 0 1
s 45.578118618 _2_ AGT  --- 192 tcp 552 [0 0 0 0] ------- [2:2 0:1 32 0] [4 0] 0 1
r 45.584192399 _0_ AGT  --- 191 tcp 572 [13a 0 2 800] ------- [2:2 0:1 32 0] [3 0] 1 1
s 45.584192399 _0_ AGT  --- 193 ack 40 [0 0 0 0] ------- [0:1 2:2 32 0] [3 0] 0 1
r 45.586190180 _2_ AGT  --- 190 ack 60 [13a 2 0 800] ------- [0:1 2:2 32 2] [2 0] 1 1
s 45.586190180 _2_ AGT  --- 194 tcp 552 [0 0 0 0] ------- [2:2 0:1 32 0] [5 0] 0 1
s 45.586190180 _2_ AGT  --- 195 tcp 552 [0 0 0 0] ------- [2:2 0:1 32 0] [6 0] 0 1
r 45.592323961 _0_ AGT  --- 192 tcp 572 [13a 0 2 800] ------- [2:2 0:1 32 0] [4 0] 1 1
s 45.592323961 _0_ AGT  --- 196 ack 40 [0 0 0 0] ------- [0:1 2:2 32 0] [4 0] 0 1
r 45.594401741 _2_ AGT  --- 193 ack 60 [13a 2 0 800] ------- [0:1 2:2 32 2] [3 0] 1 1
s 45.594401741 _2_ AGT  --- 197 tcp 552 [0 0 0 0] ------- [2:2 0:1 32 0] [7 0] 0 1
s 45.594401741 _2_ AGT  --- 198 tcp 552 [0 0 0 0] ------- [2:2 0:1 32 0] [8 0] 0 1
r 45.596680116 _2_ AGT  --- 196 ack 60 [13a 2 0 800] ------- [0:1 2:2 32 2] [4 0] 1 1
s 45.596680116 _2_ AGT  --- 199 tcp 552 [0 0 0 0] ------- [2:2 0:1 32 0] [9 0] 0 1
s 45.596680116 _2_ AGT  --- 200 tcp 552 [0 0 0 0] ------- [2:2 0:1 32 0] [10 0] 0 1
s 45.597494575 _2_ AGT  --- 201 cbr 512 [0 0 0 0] ------- [2:1 4:0 32 0] [55] 0 16777215