s 0.029290548 _1_ RTR  --- 0 message 32 [0 0 0 0] ------- [1:255 -1:255 32 0] 
s 0.029365548 _1_ MAC  --- 0 message 84 [0 ffffffff 1 800] ------- [1:255 -1:255 32 0] 
r 0.030037562 _0_ MAC  --- 0 message 32 [0 ffffffff 1 800] ------- [1:255 -1:255 32 0] 
r 0.030062562 _0_ RTR  --- 0 message 32 [0 ffffffff 1 800] ------- [1:255 -1:255 32 0] 
s 1.119926192 _0_ RTR  --- 1 message 32 [0 0 0 0] ------- [0:255 -1:255 32 0] 
s 1.120361192 _0_ MAC  --- 1 message 84 [0 ffffffff 0 800] ------- [0:255 -1:255 32 0] 
r 1.121033207 _1_ MAC  --- 1 message 32 [0 ffffffff 0 800] ------- [0:255 -1:255 32 0] 
r 1.121058207 _1_ RTR  --- 1 message 32 [0 ffffffff 0 800] ------- [0:255 -1:255 32 0] 
M 3.00000 1 (8.00, 5.00, 0.00), (50.00, 40.00), 25.00
M 3.00000 0 (5.00, 2.00, 0.00), (48.00, 38.00), 5.00
s 3.000000000 _0_ AGT  --- 2 tcp 40 [0 0 0 0] ------- [0:0 1:0 32 0] [0 0] 0 0
r 3.000000000 _0_ RTR  --- 2 tcp 40 [0 0 0 0] ------- [0:0 1:0 32 0] [0 0] 0 0
s 3.000000000 _0_ RTR  --- 2 tcp 60 [0 0 0 0] ------- [0:0 1:0 32 1] [0 0] 0 0
s 3.000295000 _0_ MAC  --- 0 ARP 80 [0 ffffffff 0 806] ------- [REQUEST 0/0 0/1]
r 3.000935014 _1_ MAC  --- 0 ARP 28 [0 ffffffff 0 806] ------- [REQUEST 0/0 0/1]
s 3.001530014 _1_ MAC  --- 0 RTS 44 [4fe 0 1 0] 
r 3.001882028 _0_ MAC  --- 0 RTS 44 [4fe 0 1 0] 
s 3.001892028 _0_ MAC  --- 0 CTS 38 [3c4 1 0 0] 
r 3.002196043 _1_ MAC  --- 0 CTS 38 [3c4 1 0 0] 
s 3.002206043 _1_ MAC  --- 0 ARP 80 [13a 0 1 806] ------- [REPLY 1/1 0/0]
r 3.002846057 _0_ MAC  --- 0 ARP 28 [13a 0 1 806] ------- [REPLY 1/1 0/0]
s 3.002856057 _0_ MAC  --- 0 ACK 38 [0 1 0 0] 
r 3.003160071 _1_ MAC  --- 0 ACK 38 [0 1 0 0] 
s 3.003370057 _0_ MAC  --- 0 RTS 44 [5fe 1 0 0] 
r 3.003722071 _1_ MAC  --- 0 RTS 44 [5fe 1 0 0] 
s 3.003732071 _1_ MAC  --- 0 CTS 38 [4c4 0 0 0] 
r 3.004036086 _0_ MAC  --- 0 CTS 38 [4c4 0 0 0] 
s 3.004046086 _0_ MAC  --- 2 tcp 112 [13a 1 0 800] ------- [0:0 1:0 32 1] [0 0] 0 0
r 3.004942100 _1_ MAC  --- 2 tcp 60 [13a 1 0 800] ------- [0:0 1:0 32 1] [0 0] 1 0
s 3.004952100 _1_ MAC  --- 0 ACK 38 [0 0 0 0] 
r 3.004967100 _1_ AGT  --- 2 tcp 60 [13a 1 0 800] ------- [0:0 1:0 32 1] [0 0] 1 0
s 3.004967100 _1_ AGT  --- 3 ack 40 [0 0 0 0] ------- [1:0 0:0 32 0] [0 0] 0 0
r 3.004967100 _1_ RTR  --- 3 ack 40 [0 0 0 0] ------- [1:0 0:0 32 0] [0 0] 0 0
s 3.004967100 _1_ RTR  --- 3 ack 60 [0 0 0 0] ------- [1:0 0:0 32 0] [0 0] 0 0
r 3.005256115 _0_ MAC  --- 0 ACK 38 [0 0 0 0] 
s 3.005506100 _1_ MAC  --- 0 RTS 44 [5fe 0 1 0] 
r 3.005858115 _0_ MAC  --- 0 RTS 44 [5fe 0 1 0] 
s 3.005868115 _0_ MAC  --- 0 CTS 38 [4c4 1 0 0] 
r 3.006172129 _1_ MAC  --- 0 CTS 38 [4c4 1 0 0] 
s 3.006182129 _1_ MAC  --- 3 ack 112 [13a 0 1 800] ------- [1:0 0:0 32 0] [0 0] 0 0
r 3.007078144 _0_ MAC  --- 3 ack 60 [13a 0 1 800] ------- [1:0 0:0 32 0] [0 0] 1 0
s 3.007088144 _0_ MAC  --- 0 ACK 38 [0 1 0 0] 
r 3.007103144 _0_ AGT  --- 3 ack 60 [13a 0 1 800] ------- [1:0 0:0 32 0] [0 0] 1 0
s 3.007103144 _0_ AGT  --- 4 tcp 1040 [0 0 0 0] ------- [0:0 1:0 32 0] [1 0] 0 0
r 3.007103144 _0_ RTR  --- 4 tcp 1040 [0 0 0 0] ------- [0:0 1:0 32 0] [1 0] 0 0
s 3.007103144 _0_ RTR  --- 4 tcp 1060 [0 0 0 0] ------- [0:0 1:0 32 1] [1 0] 0 0
s 3.007103144 _0_ AGT  --- 5 tcp 1040 [0 0 0 0] ------- [0:0 1:0 32 0] [2 0] 0 0
r 3.007103144 _0_ RTR  --- 5 tcp 1040 [0 0 0 0] ------- [0:0 1:0 32 0] [2 0] 0 0
s 3.007103144 _0_ RTR  --- 5 tcp 1060 [0 0 0 0] ------- [0:0 1:0 32 1] [2 0] 0 0
r 3.007392158 _1_ MAC  --- 0 ACK 38 [0 1 0 0] 
s 3.007482144 _0_ MAC  --- 0 RTS 44 [253e 1 0 0] 
r 3.007834158 _1_ MAC  --- 0 RTS 44 [253e 1 0 0] 
s 3.007844158 _1_ MAC  --- 0 CTS 38 [2404 0 0 0] 
r 3.008148173 _0_ MAC  --- 0 CTS 38 [2404 0 0 0] 
s 3.008158173 _0_ MAC  --- 4 tcp 1112 [13a 1 0 800] ------- [0:0 1:0 32 1] [1 0] 0 0
r 3.017054188 _1_ MAC  --- 4 tcp 1060 [13a 1 0 800] ------- [0:0 1:0 32 1] [1 0] 1 0
s 3.017064188 _1_ MAC  --- 0 ACK 38 [0 0 0 0] 
r 3.017079188 _1_ AGT  --- 4 tcp 1060 [13a 1 0 800] ------- [0:0 1:0 32 1] [1 0] 1 0
s 3.017079188 _1_ AGT  --- 6 ack 40 [0 0 0 0] ------- [1:0 0:0 32 0] [1 0] 0 0
r 3.017079188 _1_ RTR  --- 6 ack 40 [0 0 0 0] ------- [1:0 0:0 32 0] [1 0] 0 0
s 3.017079188 _1_ RTR  --- 6 ack 60 [0 0 0 0] ------- [1:0 0:0 32 0] [1 0] 0 0
r 3.017368203 _0_ MAC  --- 0 ACK 38 [0 0 0 0] 
s 3.017538188 _1_ MAC  --- 0 RTS 44 [5fe 0 1 0] 
r 3.017890203 _0_ MAC  --- 0 RTS 44 [5fe 0 1 0] 
s 3.017900203 _0_ MAC  --- 0 CTS 38 [4c4 1 0 0] 
r 3.018204218 _1_ MAC  --- 0 CTS 38 [4c4 1 0 0] 
s 3.018214218 _1_ MAC  --- 6 ack 112 [13a 0 1 800] ------- [1:0 0:0 32 0] [1 0] 0 0
r 3.019110234 _0_ MAC  --- 6 ack 60 [13a 0 1 800] ------- [1:0 0:0 32 0] [1 0] 1 0
s 3.019120234 _0_ MAC  --- 0 ACK 38 [0 1 0 0] 
r 3.019135234 _0_ AGT  --- 6 ack 60 [13a 0 1 800] ------- [1:0 0:0 32 0] [1 0] 1 0
s 3.019135234 _0_ AGT  --- 7 tcp 1040 [0 0 0 0] ------- [0:0 1:0 32 0] [3 0] 0 0
r 3.019135234 _0_ RTR  --- 7 tcp 1040 [0 0 0 0] ------- [0:0 1:0 32 0] [3 0] 0 0
s 3.019135234 _0_ RTR  --- 7 tcp 1060 [0 0 0 0] ------- [0:0 1:0 32 1] [3 0] 0 0
s 3.019135234 _0_ AGT  --- 8 tcp 1040 [0 0 0 0] ------- [0:0 1:0 32 0] [4 0] 0 0
r 3.019135234 _0_ RTR  --- 8 tcp 1040 [0 0 0 0] ------- [0:0 1:0 32 0] [4 0] 0 0
s 3.019135234 _0_ RTR  --- 8 tcp 1060 [0 0 0 0] ------- [0:0 1:0 32 1] [4 0] 0 0
r 3.019424249 _1_ MAC  --- 0 ACK 38 [0 1 0 0] 
s 3.019834234 _0_ MAC  --- 0 RTS 44 [253e 1 0 0] 
r 3.020186249 _1_ MAC  --- 0 RTS 44 [253e 1 0 0] 
s 3.020196249 _1_ MAC  --- 0 CTS 38 [2404 0 0 0] 
r 3.020500265 _0_ MAC  --- 0 CTS 38 [2404 0 0 0] 
s 3.020510265 _0_ MAC  --- 5 tcp 1112 [13a 1 0 800] ------- [0:0 1:0 32 1] [2 0] 0 0
r 3.029406280 _1_ MAC  --- 5 tcp 1060 [13a 1 0 800] ------- [0:0 1:0 32 1] [2 0] 1 0
s 3.029416280 _1_ MAC  --- 0 ACK 38 [0 0 0 0] 
r 3.029431280 _1_ AGT  --- 5 tcp 1060 [13a 1 0 800] ------- [0:0 1:0 32 1] [2 0] 1 0
s 3.029431280 _1_ AGT  --- 9 ack 40 [0 0 0 0] ------- [1:0 0:0 32 0] [2 0] 0 0
r 3.029431280 _1_ RTR  --- 9 ack 40 [0 0 0 0] ------- [1:0 0:0 32 0] [2 0] 0 0
s 3.029431280 _1_ RTR  --- 9 ack 60 [0 0 0 0] ------- [1:0 0:0 32 0] [2 0] 0 0
r 3.029720296 _0_ MAC  --- 0 ACK 38 [0 0 0 0] 
s 3.029970296 _0_ MAC  --- 0 RTS 44 [253e 1 0 0] 
r 3.030322312 _1_ MAC  --- 0 RTS 44 [253e 1 0 0] 
s 3.030332312 _1_ MAC  --- 0 CTS 38 [2404 0 0 0] 
r 3.030636329 _0_ MAC  --- 0 CTS 38 [2404 0 0 0] 
s 3.030646329 _0_ MAC  --- 7 tcp 1112 [13a 1 0 800] ------- [0:0 1:0 32 1] [3 0] 0 0
r 3.039542345 _1_ MAC  --- 7 tcp 1060 [13a 1 0 800] ------- [0:0 1:0 32 1] [3 0] 1 0
s 3.039552345 _1_ MAC  --- 0 ACK 38 [0 0 0 0] 
r 3.039567345 _1_ AGT  --- 7 tcp 1060 [13a 1 0 800] ------- [0:0 1:0 32 1] [3 0] 1 0
s 3.039567345 _1_ AGT  --- 10 ack 40 [0 0 0 0] ------- [1:0 0:0 32 0] [3 0] 0 0
r 3.039567345 _1_ RTR  --- 10 ack 40 [0 0 0 0] ------- [1:0 0:0 32 0] [3 0] 0 0
s 3.039567345 _1_ RTR  --- 10 ack 60 [0 0 0 0] ------- [1:0 0:0 32 0] [3 0] 0 0
r 3.039856361 _0_ MAC  --- 0 ACK 38 [0 0 0 0] 
s 3.040026345 _1_ MAC  --- 0 RTS 44 [5fe 0 1 0] 
r 3.040378362 _0_ MAC  --- 0 RTS 44 [5fe 0 1 0] 
s 3.040388362 _0_ MAC  --- 0 CTS 38 [4c4 1 0 0] 
r 3.040692378 _1_ MAC  --- 0 CTS 38 [4c4 1 0 0] 
s 3.040702378 _1_ MAC  --- 9 ack 112 [13a 0 1 800] ------- [1:0 0:0 32 0] [2 0] 0 0
r 3.041598395 _0_ MAC  --- 9 ack 60 [13a 0 1 800] ------- [1:0 0:0 32 0] [2 0] 1 0
s 3.041608395 _0_ MAC  --- 0 ACK 38 [0 1 0 0] 
r 3.041623395 _0_ AGT  --- 9 ack 60 [13a 0 1 800] ------- [1:0 0:0 32 0] [2 0] 1 0
s 3.041623395 _0_ AGT  --- 11 tcp 1040 [0 0 0 0] ------- [0:0 1:0 32 0] [5 0] 0 0
r 3.041623395 _0_ RTR  --- 11 tcp 1040 [0 0 0 0] ------- [0:0 1:0 32 0] [5 0] 0 0
s 3.041623395 _0_ RTR  --- 11 tcp 1060 [0 0 0 0] ------- [0:0 1:0 32 1] [5 0] 0 0
s 3.041623395 _0_ AGT  --- 12 tcp 1040 [0 0 0 0] ------- [0:0 1:0 32 0] [6 0] 0 0
r 3.041623395 _0_ RTR  --- 12 tcp 1040 [0 0 0 0] ------- [0:0 1:0 32 0] [6 0] 0 0
s 3.041623395 _0_ RTR  --- 12 tcp 1060 [0 0 0 0] ------- [0:0 1:0 32 1] [6 0] 0 0
r 3.041912412 _1_ MAC  --- 0 ACK 38 [0 1 0 0] 
s 3.041982412 _1_ MAC  --- 0 RTS 44 [5fe 0 1 0] 
r 3.042334429 _0_ MAC  --- 0 RTS 44 [5fe 0 1 0] 
s 3.042344429 _0_ MAC  --- 0 CTS 38 [4c4 1 0 0] 
r 3.042648446 _1_ MAC  --- 0 CTS 38 [4c4 1 0 0] 
s 3.042658446 _1_ MAC  --- 10 ack 112 [13a 0 1 800] ------- [1:0 0:0 32 0] [3 0] 0 0
r 3.043554463 _0_ MAC  --- 10 ack 60 [13a 0 1 800] ------- [1:0 0:0 32 0] [3 0] 1 0
s 3.043564463 _0_ MAC  --- 0 ACK 38 [0 1 0 0] 
r 3.043579463 _0_ AGT  --- 10 ack 60 [13a 0 1 800] ------- [1:0 0:0 32 0] [3 0] 1 0
s 3.043579463 _0_ AGT  --- 13 tcp 1040 [0 0 0 0] ------- [0:0 1:0 32 0] [7 0] 0 0
r 3.043579463 _0_ RTR  --- 13 tcp 1040 [0 0 0 0] ------- [0:0 1:0 32 0] [7 0] 0 0
s 3.043579463 _0_ RTR  --- 13 tcp 1060 [0 0 0 0] ------- [0:0 1:0 32 1] [7 0] 0 0
s 3.043579463 _0_ AGT  --- 14 tcp 1040 [0 0 0 0] ------- [0:0 1:0 32 0] [8 0] 0 0
r 3.043579463 _0_ RTR  --- 14 tcp 1040 [0 0 0 0] ------- [0:0 1:0 32 0] [8 0] 0 0
s 3.043579463 _0_ RTR  --- 14 tcp 1060 [0 0 0 0] ------- [0:0 1:0 32 1] [8 0] 0 0
r 3.043868480 _1_ MAC  --- 0 ACK 38 [0 1 0 0] 
s 3.043998463 _0_ MAC  --- 0 RTS 44 [253e 1 0 0] 
r 3.044350480 _1_ MAC  --- 0 RTS 44 [253e 1 0 0] 
s 3.044360480 _1_ MAC  --- 0 CTS 38 [2404 0 0 0] 
r 3.044664497 _0_ MAC  --- 0 CTS 38 [2404 0 0 0] 
s 3.044674497 _0_ MAC  --- 8 tcp 1112 [13a 1 0 800] ------- [0:0 1:0 32 1] [4 0] 0 0
r 3.053570514 _1_ MAC  --- 8 tcp 1060 [13a 1 0 800] ------- [0:0 1:0 32 1] [4 0] 1 0
s 3.053580514 _1_ MAC  --- 0 ACK 38 [0 0 0 0] 
r 3.053595514 _1_ AGT  --- 8 tcp 1060 [13a 1 0 800] ------- [0:0 1:0 32 1] [4 0] 1 0
s 3.053595514 _1_ AGT  --- 15 ack 40 [0 0 0 0] ------- [1:0 0:0 32 0] [4 0] 0 0
r 3.053595514 _1_ RTR  --- 15 ack 40 [0 0 0 0] ------- [1:0 0:0 32 0] [4 0] 0 0
s 3.053595514 _1_ RTR  --- 15 ack 60 [0 0 0 0] ------- [1:0 0:0 32 0] [4 0] 0 0
r 3.053884532 _0_ MAC  --- 0 ACK 38 [0 0 0 0] 
s 3.054094514 _1_ MAC  --- 0 RTS 44 [5fe 0 1 0] 
r 3.054446532 _0_ MAC  --- 0 RTS 44 [5fe 0 1 0] 
s 3.054456532 _0_ MAC  --- 0 CTS 38 [4c4 1 0 0] 
r 3.054760550 _1_ MAC  --- 0 CTS 38 [4c4 1 0 0] 
s 3.054770550 _1_ MAC  --- 15 ack 112 [13a 0 1 800] ------- [1:0 0:0 32 0] [4 0] 0 0
r 3.055666567 _0_ MAC  --- 15 ack 60 [13a 0 1 800] ------- [1:0 0:0 32 0] [4 0] 1 0
s 3.055676567 _0_ MAC  --- 0 ACK 38 [0 1 0 0] 
r 3.055691567 _0_ AGT  --- 15 ack 60 [13a 0 1 800] ------- [1:0 0:0 32 0] [4 0] 1 0
s 3.055691567 _0_ AGT  --- 16 tcp 1040 [0 0 0 0] ------- [0:0 1:0 32 0] [9 0] 0 0
r 3.055691567 _0_ RTR  --- 16 tcp 1040 [0 0 0 0] ------- [0:0 1:0 32 0] [9 0] 0 0
s 3.055691567 _0_ RTR  --- 16 tcp 1060 [0 0 0 0] ------- [0:0 1:0 32 1] [9 0] 0 0
s 3.055691567 _0_ AGT  --- 17 tcp 1040 [0 0 0 0] ------- [0:0 1:0 32 0] [10 0] 0 0
r 3.055691567 _0_ RTR  --- 17 tcp 1040 [0 0 0 0] ------- [0:0 1:0 32 0] [10 0] 0 0
s 3.055691567 _0_ RTR  --- 17 tcp 1060 [0 0 0 0] ------- [0:0 1:0 32 1] [10 0] 0 0
r 3.055980585 _1_ MAC  --- 0 ACK 38 [0 1 0 0] 
s 3.056310567 _0_ MAC  --- 0 RTS 44 [253e 1 0 0] 
r 3.056662585 _1_ MAC  --- 0 RTS 44 [253e 1 0 0] 
s 3.056672585 _1_ MAC  --- 0 CTS 38 [2404 0 0 0] 
r 3.056976603 _0_ MAC  --- 0 CTS 38 [2404 0 0 0] 
s 3.056986603 _0_ MAC  --- 11 tcp 1112 [13a 1 0 800] ------- [0:0 1:0 32 1] [5 0] 0 0
r 3.065882621 _1_ MAC  --- 11 tcp 1060 [13a 1 0 800] ------- [0:0 1:0 32 1] [5 0] 1 0
s 3.065892621 _1_ MAC  --- 0 ACK 38 [0 0 0 0] 
r 3.065907621 _1_ AGT  --- 11 tcp 1060 [13a 1 0 800] ------- [0:0 1:0 32 1] [5 0] 1 0
s 3.065907621 _1_ AGT  --- 18 ack 40 [0 0 0 0] ------- [1:0 0:0 32 0] [5 0] 0 0
r 3.065907621 _1_ RTR  --- 18 ack 40 [0 0 0 0] ------- [1:0 0:0 32 0] [5 0] 0 0
s 3.065907621 _1_ RTR  --- 18 ack 60 [0 0 0 0] ------- [1:0 0:0 32 0] [5 0] 0 0
r 3.066196640 _0_ MAC  --- 0 ACK 38 [0 0 0 0] 
s 3.066646640 _0_ MAC  --- 0 RTS 44 [253e 1 0 0] 
r 3.066998658 _1_ MAC  --- 0 RTS 44 [253e 1 0 0] 
s 3.067008658 _1_ MAC  --- 0 CTS 38 [2404 0 0 0] 
r 3.067312677 _0_ MAC  --- 0 CTS 38 [2404 0 0 0] 
s 3.067322677 _0_ MAC  --- 12 tcp 1112 [13a 1 0 800] ------- [0:0 1:0 32 1] [6 0] 0 0
r 3.076218696 _1_ MAC  --- 12 tcp 1060 [13a 1 0 800] ------- [0:0 1:0 32 1] [6 0] 1 0
s 3.076228696 _1_ MAC  --- 0 ACK 38 [0 0 0 0] 
r 3.076243696 _1_ AGT  --- 12 tcp 1060 [13a 1 0 800] ------- [0:0 1:0 32 1] [6 0] 1 0
s 3.076243696 _1_ AGT  --- 19 ack 40 [0 0 0 0] ------- [1:0 0:0 32 0] [6 0] 0 0
r 3.076243696 _1_ RTR  --- 19 ack 40 [0 0 0 0] ------- [1:0 0:0 32 0] [6 0] 0 0
s 3.076243696 _1_ RTR  --- 19 ack 60 [0 0 0 0] ------- [1:0 0:0 32 0] [6 0] 0 0
r 3.076532715 _0_ MAC  --- 0 ACK 38 [0 0 0 0] 
s 3.076762696 _1_ MAC  --- 0 RTS 44 [5fe 0 1 0] 
r 3.077114715 _0_ MAC  --- 0 RTS 44 [5fe 0 1 0] 
s 3.077124715 _0_ MAC  --- 0 CTS 38 [4c4 1 0 0] 
r 3.077428734 _1_ MAC  --- 0 CTS 38 [4c4 1 0 0] 
s 3.077438734 _1_ MAC  --- 18 ack 112 [13a 0 1 800] ------- [1:0 0:0 32 0] [5 0] 0 0
r 3.078334753 _0_ MAC  --- 18 ack 60 [13a 0 1 800] ------- [1:0 0:0 32 0] [5 0] 1 0
s 3.078344753 _0_ MAC  --- 0 ACK 38 [0 1 0 0] 
r 3.078359753 _0_ AGT  --- 18 ack 60 [13a 0 1 800] ------- [1:0 0:0 32 0] [5 0] 1 0
s 3.078359753 _0_ AGT  --- 20 tcp 1040 [0 0 0 0] ------- [0:0 1:0 32 0] [11 0] 0 0
r 3.078359753 _0_ RTR  --- 20 tcp 1040 [0 0 0 0] ------- [0:0 1:0 32 0] [11 0] 0 0
s 3.078359753 _0_ RTR  --- 20 tcp 1060 [0 0 0 0] ------- [0:0 1:0 32 1] [11 0] 0 0
s 3.078359753 _0_ AGT  --- 21 tcp 1040 [0 0 0 0] ------- [0:0 1:0 32 0] [12 0] 0 0
r 3.078359753 _0_ RTR  --- 21 tcp 1040 [0 0 0 0] ------- [0:0 1:0 32 0] [12 0] 0 0
s 3.078359753 _0_ RTR  --- 21 tcp 1060 [0 0 0 0] ------- [0:0 1:0 32 1] [12 0] 0 0
r 3.078648773 _1_ MAC  --- 0 ACK 38 [0 1 0 0] 
s 3.079058753 _0_ MAC  --- 0 RTS 44 [253e 1 0 0] 
s 3.079058773 _1_ MAC  --- 0 RTS 44 [5fe 0 1 0] 
s 3.080844792 _0_ MAC  --- 0 RTS 44 [253e 1 0 0] 
r 3.081196812 _1_ MAC  --- 0 RTS 44 [253e 1 0 0] 
s 3.081206812 _1_ MAC  --- 0 CTS 38 [2404 0 0 0] 
r 3.081510831 _0_ MAC  --- 0 CTS 38 [2404 0 0 0] 
s 3.081520831 _0_ MAC  --- 13 tcp 1112 [13a 1 0 800] ------- [0:0 1:0 32 1] [7 0] 0 0
r 3.090416851 _1_ MAC  --- 13 tcp 1060 [13a 1 0 800] ------- [0:0 1:0 32 1] [7 0] 1 0
s 3.090426851 _1_ MAC  --- 0 ACK 38 [0 0 0 0] 
r 3.090441851 _1_ AGT  --- 13 tcp 1060 [13a 1 0 800] ------- [0:0 1:0 32 1] [7 0] 1 0
s 3.090441851 _1_ AGT  --- 22 ack 40 [0 0 0 0] ------- [1:0 0:0 32 0] [7 0] 0 0
r 3.090441851 _1_ RTR  --- 22 ack 40 [0 0 0 0] ------- [1:0 0:0 32 0] [7 0] 0 0
s 3.090441851 _1_ RTR  --- 22 ack 60 [0 0 0 0] ------- [1:0 0:0 32 0] [7 0] 0 0
r 3.090730871 _0_ MAC  --- 0 ACK 38 [0 0 0 0] 
s 3.090880851 _1_ MAC  --- 0 RTS 44 [5fe 0 1 0] 
r 3.091232871 _0_ MAC  --- 0 RTS 44 [5fe 0 1 0] 
s 3.091242871 _0_ MAC  --- 0 CTS 38 [4c4 1 0 0] 
r 3.091546891 _1_ MAC  --- 0 CTS 38 [4c4 1 0 0] 
s 3.091556891 _1_ MAC  --- 19 ack 112 [13a 0 1 800] ------- [1:0 0:0 32 0] [6 0] 0 0
r 3.092452911 _0_ MAC  --- 19 ack 60 [13a 0 1 800] ------- [1:0 0:0 32 0] [6 0] 1 0
s 3.092462911 _0_ MAC  --- 0 ACK 38 [0 1 0 0] 
r 3.092477911 _0_ AGT  --- 19 ack 60 [13a 0 1 800] ------- [1:0 0:0 32 0] [6 0] 1 0
s 3.092477911 _0_ AGT  --- 23 tcp 1040 [0 0 0 0] ------- [0:0 1:0 32 0] [13 0] 0 0
r 3.092477911 _0_ RTR  --- 23 tcp 1040 [0 0 0 0] ------- [0:0 1:0 32 0] [13 0] 0 0
s 3.092477911 _0_ RTR  --- 23 tcp 1060 [0 0 0 0] ------- [0:0 1:0 32 1] [13 0] 0 0
s 3.092477911 _0_ AGT  --- 24 tcp 1040 [0 0 0 0] ------- [0:0 1:0 32 0] [14 0] 0 0
r 3.092477911 _0_ RTR  --- 24 tcp 1040 [0 0 0 0] ------- [0:0 1:0 32 0] [14 0] 0 0
s 3.092477911 _0_ RTR  --- 24 tcp 1060 [0 0 0 0] ------- [0:0 1:0 32 1] [14 0] 0 0
r 3.092766932 _1_ MAC  --- 0 ACK 38 [0 1 0 0] 
s 3.092956932 _1_ MAC  --- 0 RTS 44 [5fe 0 1 0] 
r 3.093308952 _0_ MAC  --- 0 RTS 44 [5fe 0 1 0] 
s 3.093318952 _0_ MAC  --- 0 CTS 38 [4c4 1 0 0] 
r 3.093622972 _1_ MAC  --- 0 CTS 38 [4c4 1 0 0] 
s 3.093632972 _1_ MAC  --- 22 ack 112 [13a 0 1 800] ------- [1:0 0:0 32 0] [7 0] 0 0
r 3.094528993 _0_ MAC  --- 22 ack 60 [13a 0 1 800] ------- [1:0 0:0 32 0] [7 0] 1 0
s 3.094538993 _0_ MAC  --- 0 ACK 38 [0 1 0 0] 
r 3.094553993 _0_ AGT  --- 22 ack 60 [13a 0 1 800] ------- [1:0 0:0 32 0] [7 0] 1 0
s 3.094553993 _0_ AGT  --- 25 tcp 1040 [0 0 0 0] ------- [0:0 1:0 32 0] [15 0] 0 0
r 3.094553993 _0_ RTR  --- 25 tcp 1040 [0 0 0 0] ------- [0:0 1:0 32 0] [15 0] 0 0
s 3.094553993 _0_ RTR  --- 25 tcp 1060 [0 0 0 0] ------- [0:0 1:0 32 1] [15 0] 0 0
s 3.094553993 _0_ AGT  --- 26 tcp 1040 [0 0 0 0] ------- [0:0 1:0 32 0] [16 0] 0 0
r 3.094553993 _0_ RTR  --- 26 tcp 1040 [0 0 0 0] ------- [0:0 1:0 32 0] [16 0] 0 0
s 3.094553993 _0_ RTR  --- 26 tcp 1060 [0 0 0 0] ------- [0:0 1:0 32 1] [16 0] 0 0
r 3.094843013 _1_ MAC  --- 0 ACK 38 [0 1 0 0] 
s 3.095012993 _0_ MAC  --- 0 RTS 44 [253e 1 0 0] 
r 3.095365013 _1_ MAC  --- 0 RTS 44 [253e 1 0 0] 
s 3.095375013 _1_ MAC  --- 0 CTS 38 [2404 0 0 0] 
r 3.095679034 _0_ MAC  --- 0 CTS 38 [2404 0 0 0] 
s 3.095689034 _0_ MAC  --- 14 tcp 1112 [13a 1 0 800] ------- [0:0 1:0 32 1] [8 0] 0 0
r 3.104585054 _1_ MAC  --- 14 tcp 1060 [13a 1 0 800] ------- [0:0 1:0 32 1] [8 0] 1 0
s 3.104595054 _1_ MAC  --- 0 ACK 38 [0 0 0 0] 
r 3.104610054 _1_ AGT  --- 14 tcp 1060 [13a 1 0 800] ------- [0:0 1:0 32 1] [8 0] 1 0
s 3.104610054 _1_ AGT  --- 27 ack 40 [0 0 0 0] ------- [1:0 0:0 32 0] [8 0] 0 0
r 3.104610054 _1_ RTR  --- 27 ack 40 [0 0 0 0] ------- [1:0 0:0 32 0] [8 0] 0 0
s 3.104610054 _1_ RTR  --- 27 ack 60 [0 0 0 0] ------- [1:0 0:0 32 0] [8 0] 0 0
r 3.104899075 _0_ MAC  --- 0 ACK 38 [0 0 0 0] 
s 3.105149075 _0_ MAC  --- 0 RTS 44 [253e 1 0 0] 
r 3.105501096 _1_ MAC  --- 0 RTS 44 [253e 1 0 0] 
s 3.105511096 _1_ MAC  --- 0 CTS 38 [2404 0 0 0] 
r 3.105815117 _0_ MAC  --- 0 CTS 38 [2404 0 0 0] 
s 3.105825117 _0_ MAC  --- 16 tcp 1112 [13a 1 0 800] ------- [0:0 1:0 32 1] [9 0] 0 0
r 3.114721139 _1_ MAC  --- 16 tcp 1060 [13a 1 0 800] ------- [0:0 1:0 32 1] [9 0] 1 0
s 3.114731139 _1_ MAC  --- 0 ACK 38 [0 0 0 0] 
r 3.114746139 _1_ AGT  --- 16 tcp 1060 [13a 1 0 800] ------- [0:0 1:0 32 1] [9 0] 1 0
s 3.114746139 _1_ AGT  --- 28 ack 40 [0 0 0 0] ------- [1:0 0:0 32 0] [9 0] 0 0
r 3.114746139 _1_ RTR  --- 28 ack 40 [0 0 0 0] ------- [1:0 0:0 32 0] [9 0] 0 0
s 3.114746139 _1_ RTR  --- 28 ack 60 [0 0 0 0] ------- [1:0 0:0 32 0] [9 0] 0 0
r 3.115035160 _0_ MAC  --- 0 ACK 38 [0 0 0 0] 
s 3.115165139 _1_ MAC  --- 0 RTS 44 [5fe 0 1 0] 
r 3.115517160 _0_ MAC  --- 0 RTS 44 [5fe 0 1 0] 
s 3.115527160 _0_ MAC  --- 0 CTS 38 [4c4 1 0 0] 
r 3.115831182 _1_ MAC  --- 0 CTS 38 [4c4 1 0 0] 
s 3.115841182 _1_ MAC  --- 27 ack 112 [13a 0 1 800] ------- [1:0 0:0 32 0] [8 0] 0 0
r 3.116737204 _0_ MAC  --- 27 ack 60 [13a 0 1 800] ------- [1:0 0:0 32 0] [8 0] 1 0
s 3.116747204 _0_ MAC  --- 0 ACK 38 [0 1 0 0] 
r 3.116762204 _0_ AGT  --- 27 ack 60 [13a 0 1 800] ------- [1:0 0:0 32 0] [8 0] 1 0
s 3.116762204 _0_ AGT  --- 29 tcp 1040 [0 0 0 0] ------- [0:0 1:0 32 0] [17 0] 0 0
r 3.116762204 _0_ RTR  --- 29 tcp 1040 [0 0 0 0] ------- [0:0 1:0 32 0] [17 0] 0 0
s 3.116762204 _0_ RTR  --- 29 tcp 1060 [0 0 0 0] ------- [0:0 1:0 32 1] [17 0] 0 0
s 3.116762204 _0_ AGT  --- 30 tcp 1040 [0 0 0 0] ------- [0:0 1:0 32 0] [18 0] 0 0
r 3.116762204 _0_ RTR  --- 30 tcp 1040 [0 0 0 0] ------- [0:0 1:0 32 0] [18 0] 0 0
s 3.116762204 _0_ RTR  --- 30 tcp 1060 [0 0 0 0] ------- [0:0 1:0 32 1] [18 0] 0 0
r 3.117051226 _1_ MAC  --- 0 ACK 38 [0 1 0 0] 
s 3.117121204 _0_ MAC  --- 0 RTS 44 [253e 1 0 0] 
r 3.117473226 _1_ MAC  --- 0 RTS 44 [253e 1 0 0] 
s 3.117483226 _1_ MAC  --- 0 CTS 38 [2404 0 0 0] 
r 3.117787248 _0_ MAC  --- 0 CTS 38 [2404 0 0 0] 
s 3.117797248 _0_ MAC  --- 17 tcp 1112 [13a 1 0 800] ------- [0:0 1:0 32 1] [10 0] 0 0
r 3.126693270 _1_ MAC  --- 17 tcp 1060 [13a 1 0 800] ------- [0:0 1:0 32 1] [10 0] 1 0
s 3.126703270 _1_ MAC  --- 0 ACK 38 [0 0 0 0] 
r 3.126718270 _1_ AGT  --- 17 tcp 1060 [13a 1 0 800] ------- [0:0 1:0 32 1] [10 0] 1 0
s 3.126718270 _1_ AGT  --- 31 ack 40 [0 0 0 0] ------- [1:0 0:0 32 0] [10 0] 0 0
r 3.126718270 _1_ RTR  --- 31 ack 40 [0 0 0 0] ------- [1:0 0:0 32 0] [10 0] 0 0
s 3.126718270 _1_ RTR  --- 31 ack 60 [0 0 0 0] ------- [1:0 0:0 32 0] [10 0] 0 0
r 3.127007293 _0_ MAC  --- 0 ACK 38 [0 0 0 0] 
s 3.127277293 _0_ MAC  --- 0 RTS 44 [253e 1 0 0] 
r 3.127629315 _1_ MAC  --- 0 RTS 44 [253e 1 0 0] 
s 3.127639315 _1_ MAC  --- 0 CTS 38 [2404 0 0 0] 
r 3.127943338 _0_ MAC  --- 0 CTS 38 [2404 0 0 0] 
s 3.127953338 _0_ MAC  --- 20 tcp 1112 [13a 1 0 800] ------- [0:0 1:0 32 1] [11 0] 0 0
r 3.136849360 _1_ MAC  --- 20 tcp 1060 [13a 1 0 800] ------- [0:0 1:0 32 1] [11 0] 1 0
s 3.136859360 _1_ MAC  --- 0 ACK 38 [0 0 0 0] 
r 3.136874360 _1_ AGT  --- 20 tcp 1060 [13a 1 0 800] ------- [0:0 1:0 32 1] [11 0] 1 0
s 3.136874360 _1_ AGT  --- 32 ack 40 [0 0 0 0] ------- [1:0 0:0 32 0] [11 0] 0 0
r 3.136874360 _1_ RTR  --- 32 ack 40 [0 0 0 0] ------- [1:0 0:0 32 0] [11 0] 0 0
s 3.136874360 _1_ RTR  --- 32 ack 60 [0 0 0 0] ------- [1:0 0:0 32 0] [11 0] 0 0
r 3.137163384 _0_ MAC  --- 0 ACK 38 [0 0 0 0] 
s 3.137413384 _0_ MAC  --- 0 RTS 44 [253e 1 0 0] 
r 3.137765407 _1_ MAC  --- 0 RTS 44 [253e 1 0 0] 
s 3.137775407 _1_ MAC  --- 0 CTS 38 [2404 0 0 0] 
r 3.138079430 _0_ MAC  --- 0 CTS 38 [2404 0 0 0] 
s 3.138089430 _0_ MAC  --- 21 tcp 1112 [13a 1 0 800] ------- [0:0 1:0 32 1] [12 0] 0 0
r 3.146985454 _1_ MAC  --- 21 tcp 1060 [13a 1 0 800] ------- [0:0 1:0 32 1] [12 0] 1 0
s 3.146995454 _1_ MAC  --- 0 ACK 38 [0 0 0 0] 
r 3.147010454 _1_ AGT  --- 21 tcp 1060 [13a 1 0 800] ------- [0:0 1:0 32 1] [12 0] 1 0
s 3.147010454 _1_ AGT  --- 33 ack 40 [0 0 0 0] ------- [1:0 0:0 32 0] [12 0] 0 0
r 3.147010454 _1_ RTR  --- 33 ack 40 [0 0 0 0] ------- [1:0 0:0 32 0] [12 0] 0 0
s 3.147010454 _1_ RTR  --- 33 ack 60 [0 0 0 0] ------- [1:0 0:0 32 0] [12 0] 0 0
r 3.147299477 _0_ MAC  --- 0 ACK 38 [0 0 0 0] 
s 3.147429454 _1_ MAC  --- 0 RTS 44 [5fe 0 1 0] 
r 3.147781477 _0_ MAC  --- 0 RTS 44 [5fe 0 1 0] 
s 3.147791477 _0_ MAC  --- 0 CTS 38 [4c4 1 0 0] 
r 3.148095501 _1_ MAC  --- 0 CTS 38 [4c4 1 0 0] 
s 3.148105501 _1_ MAC  --- 28 ack 112 [13a 0 1 800] ------- [1:0 0:0 32 0] [9 0] 0 0
r 3.149001525 _0_ MAC  --- 28 ack 60 [13a 0 1 800] ------- [1:0 0:0 32 0] [9 0] 1 0
s 3.149011525 _0_ MAC  --- 0 ACK 38 [0 1 0 0] 
r 3.149026525 _0_ AGT  --- 28 ack 60 [13a 0 1 800] ------- [1:0 0:0 32 0] [9 0] 1 0
s 3.149026525 _0_ AGT  --- 34 tcp 1040 [0 0 0 0] ------- [0:0 1:0 32 0] [19 0] 0 0
r 3.149026525 _0_ RTR  --- 34 tcp 1040 [0 0 0 0] ------- [0:0 1:0 32 0] [19 0] 0 0
s 3.149026525 _0_ RTR  --- 34 tcp 1060 [0 0 0 0] ------- [0:0 1:0 32 1] [19 0] 0 0
s 3.149026525 _0_ AGT  --- 35 tcp 1040 [0 0 0 0] ------- [0:0 1:0 32 0] [20 0] 0 0
r 3.149026525 _0_ RTR  --- 35 tcp 1040 [0 0 0 0] ------- [0:0 1:0 32 0] [20 0] 0 0
s 3.149026525 _0_ RTR  --- 35 tcp 1060 [0 0 0 0] ------- [0:0 1:0 32 1] [20 0] 0 0
r 3.149315550 _1_ MAC  --- 0 ACK 38 [0 1 0 0] 
s 3.149425550 _1_ MAC  --- 0 RTS 44 [5fe 0 1 0] 
r 3.149777574 _0_ MAC  --- 0 RTS 44 [5fe 0 1 0] 
s 3.149787574 _0_ MAC  --- 0 CTS 38 [4c4 1 0 0] 
r 3.150091598 _1_ MAC  --- 0 CTS 38 [4c4 1 0 0] 
s 3.150101598 _1_ MAC  --- 31 ack 112 [13a 0 1 800] ------- [1:0 0:0 32 0] [10 0] 0 0
r 3.150997622 _0_ MAC  --- 31 ack 60 [13a 0 1 800] ------- [1:0 0:0 32 0] [10 0] 1 0
s 3.151007622 _0_ MAC  --- 0 ACK 38 [0 1 0 0] 
r 3.151022622 _0_ AGT  --- 31 ack 60 [13a 0 1 800] ------- [1:0 0:0 32 0] [10 0] 1 0
s 3.151022622 _0_ AGT  --- 36 tcp 1040 [0 0 0 0] ------- [0:0 1:0 32 0] [21 0] 0 0
r 3.151022622 _0_ RTR  --- 36 tcp 1040 [0 0 0 0] ------- [0:0 1:0 32 0] [21 0] 0 0
s 3.151022622 _0_ RTR  --- 36 tcp 1060 [0 0 0 0] ------- [0:0 1:0 32 1] [21 0] 0 0
s 3.151022622 _0_ AGT  --- 37 tcp 1040 [0 0 0 0] ------- [0:0 1:0 32 0] [22 0] 0 0
r 3.151022622 _0_ RTR  --- 37 tcp 1040 [0 0 0 0] ------- [0:0 1:0 32 0] [22 0] 0 0
s 3.151022622 _0_ RTR  --- 37 tcp 1060 [0 0 0 0] ------- [0:0 1:0 32 1] [22 0] 0 0
r 3.151311646 _1_ MAC  --- 0 ACK 38 [0 1 0 0] 
s 3.151481646 _1_ MAC  --- 0 RTS 44 [5fe 0 1 0] 
r 3.151833670 _0_ MAC  --- 0 RTS 44 [5fe 0 1 0] 
s 3.151843670 _0_ MAC  --- 0 CTS 38 [4c4 1 0 0] 
r 3.152147694 _1_ MAC  --- 0 CTS 38 [4c4 1 0 0] 
s 3.152157694 _1_ MAC  --- 32 ack 112 [13a 0 1 800] ------- [1:0 0:0 32 0] [11 0] 0 0
r 3.153053719 _0_ MAC  --- 32 ack 60 [13a 0 1 800] ------- [1:0 0:0 32 0] [11 0] 1 0
s 3.153063719 _0_ MAC  --- 0 ACK 38 [0 1 0 0] 
r 3.153078719 _0_ AGT  --- 32 ack 60 [13a 0 1 800] ------- [1:0 0:0 32 0] [11 0] 1 0
s 3.153078719 _0_ AGT  --- 38 tcp 1040 [0 0 0 0] ------- [0:0 1:0 32 0] [23 0] 0 0
r 3.153078719 _0_ RTR  --- 38 tcp 1040 [0 0 0 0] ------- [0:0 1:0 32 0] [23 0] 0 0
s 3.153078719 _0_ RTR  --- 38 tcp 1060 [0 0 0 0] ------- [0:0 1:0 32 1] [23 0] 0 0
s 3.153078719 _0_ AGT  --- 39 tcp 1040 [0 0 0 0] ------- [0:0 1:0 32 0] [24 0] 0 0
r 3.153078719 _0_ RTR  --- 39 tcp 1040 [0 0 0 0] ------- [0:0 1:0 32 0] [24 0] 0 0
s 3.153078719 _0_ RTR  --- 39 tcp 1060 [0 0 0 0] ------- [0:0 1:0 32 1] [24 0] 0 0
r 3.153367743 _1_ MAC  --- 0 ACK 38 [0 1 0 0] 
s 3.153737719 _0_ MAC  --- 0 RTS 44 [253e 1 0 0] 
r 3.154089743 _1_ MAC  --- 0 RTS 44 [253e 1 0 0] 
s 3.154099743 _1_ MAC  --- 0 CTS 38 [2404 0 0 0] 
r 3.154403767 _0_ MAC  --- 0 CTS 38 [2404 0 0 0] 
s 3.154413767 _0_ MAC  --- 23 tcp 1112 [13a 1 0 800] ------- [0:0 1:0 32 1] [13 0] 0 0
r 3.163309792 _1_ MAC  --- 23 tcp 1060 [13a 1 0 800] ------- [0:0 1:0 32 1] [13 0] 1 0
s 3.163319792 _1_ MAC  --- 0 ACK 38 [0 0 0 0] 
r 3.163334792 _1_ AGT  --- 23 tcp 1060 [13a 1 0 800] ------- [0:0 1:0 32 1] [13 0] 1 0
s 3.163334792 _1_ AGT  --- 40 ack 40 [0 0 0 0] ------- [1:0 0:0 32 0] [13 0] 0 0
r 3.163334792 _1_ RTR  --- 40 ack 40 [0 0 0 0] ------- [1:0 0:0 32 0] [13 0] 0 0
s 3.163334792 _1_ RTR  --- 40 ack 60 [0 0 0 0] ------- [1:0 0:0 32 0] [13 0] 0 0
r 3.163623817 _0_ MAC  --- 0 ACK 38 [0 0 0 0] 
s 3.163693792 _1_ MAC  --- 0 RTS 44 [5fe 0 1 0] 
r 3.164045817 _0_ MAC  --- 0 RTS 44 [5fe 0 1 0] 
s 3.164055817 _0_ MAC  --- 0 CTS 38 [4c4 1 0 0] 
r 3.164359842 _1_ MAC  --- 0 CTS 38 [4c4 1 0 0] 
s 3.164369842 _1_ MAC  --- 33 ack 112 [13a 0 1 800] ------- [1:0 0:0 32 0] [12 0] 0 0
r 3.165265867 _0_ MAC  --- 33 ack 60 [13a 0 1 800] ------- [1:0 0:0 32 0] [12 0] 1 0
s 3.165275867 _0_ MAC  --- 0 ACK 38 [0 1 0 0] 
r 3.165290867 _0_ AGT  --- 33 ack 60 [13a 0 1 800] ------- [1:0 0:0 32 0] [12 0] 1 0
s 3.165290867 _0_ AGT  --- 41 tcp 1040 [0 0 0 0] ------- [0:0 1:0 32 0] [25 0] 0 0
r 3.165290867 _0_ RTR  --- 41 tcp 1040 [0 0 0 0] ------- [0:0 1:0 32 0] [25 0] 0 0
s 3.165290867 _0_ RTR  --- 41 tcp 1060 [0 0 0 0] ------- [0:0 1:0 32 1] [25 0] 0 0
s 3.165290867 _0_ AGT  --- 42 tcp 1040 [0 0 0 0] ------- [0:0 1:0 32 0] [26 0] 0 0
r 3.165290867 _0_ RTR  --- 42 tcp 1040 [0 0 0 0] ------- [0:0 1:0 32 0] [26 0] 0 0
s 3.165290867 _0_ RTR  --- 42 tcp 1060 [0 0 0 0] ------- [0:0 1:0 32 1] [26 0] 0 0
r 3.165579892 _1_ MAC  --- 0 ACK 38 [0 1 0 0] 
s 3.165909892 _1_ MAC  --- 0 RTS 44 [5fe 0 1 0] 
r 3.166261917 _0_ MAC  --- 0 RTS 44 [5fe 0 1 0] 
s 3.166271917 _0_ MAC  --- 0 CTS 38 [4c4 1 0 0] 
r 3.166575943 _1_ MAC  --- 0 CTS 38 [4c4 1 0 0] 
s 3.166585943 _1_ MAC  --- 40 ack 112 [13a 0 1 800] ------- [1:0 0:0 32 0] [13 0] 0 0
r 3.167481968 _0_ MAC  --- 40 ack 60 [13a 0 1 800] ------- [1:0 0:0 32 0] [13 0] 1 0
s 3.167491968 _0_ MAC  --- 0 ACK 38 [0 1 0 0] 
r 3.167506968 _0_ AGT  --- 40 ack 60 [13a 0 1 800] ------- [1:0 0:0 32 0] [13 0] 1 0
s 3.167506968 _0_ AGT  --- 43 tcp 1040 [0 0 0 0] ------- [0:0 1:0 32 0] [27 0] 0 0
r 3.167506968 _0_ RTR  --- 43 tcp 1040 [0 0 0 0] ------- [0:0 1:0 32 0] [27 0] 0 0
s 3.167506968 _0_ RTR  --- 43 tcp 1060 [0 0 0 0] ------- [0:0 1:0 32 1] [27 0] 0 0
s 3.167506968 _0_ AGT  --- 44 tcp 1040 [0 0 0 0] ------- [0:0 1:0 32 0] [28 0] 0 0
r 3.167506968 _0_ RTR  --- 44 tcp 1040 [0 0 0 0] ------- [0:0 1:0 32 0] [28 0] 0 0
s 3.167506968 _0_ RTR  --- 44 tcp 1060 [0 0 0 0] ------- [0:0 1:0 32 1] [28 0] 0 0
r 3.167795993 _1_ MAC  --- 0 ACK 38 [0 1 0 0] 
s 3.168045968 _0_ MAC  --- 0 RTS 44 [253e 1 0 0] 
r 3.168397993 _1_ MAC  --- 0 RTS 44 [253e 1 0 0] 
s 3.168407993 _1_ MAC  --- 0 CTS 38 [2404 0 0 0] 
r 3.168712018 _0_ MAC  --- 0 CTS 38 [2404 0 0 0] 
s 3.168722018 _0_ MAC  --- 24 tcp 1112 [13a 1 0 800] ------- [0:0 1:0 32 1] [14 0] 0 0
r 3.177618044 _1_ MAC  --- 24 tcp 1060 [13a 1 0 800] ------- [0:0 1:0 32 1] [14 0] 1 0
s 3.177628044 _1_ MAC  --- 0 ACK 38 [0 0 0 0] 
r 3.177643044 _1_ AGT  --- 24 tcp 1060 [13a 1 0 800] ------- [0:0 1:0 32 1] [14 0] 1 0
s 3.177643044 _1_ AGT  --- 45 ack 40 [0 0 0 0] ------- [1:0 0:0 32 0] [14 0] 0 0
r 3.177643044 _1_ RTR  --- 45 ack 40 [0 0 0 0] ------- [1:0 0:0 32 0] [14 0] 0 0
s 3.177643044 _1_ RTR  --- 45 ack 60 [0 0 0 0] ------- [1:0 0:0 32 0] [14 0] 0 0
r 3.177932070 _0_ MAC  --- 0 ACK 38 [0 0 0 0] 
s 3.178262044 _1_ MAC  --- 0 RTS 44 [5fe 0 1 0] 
r 3.178614070 _0_ MAC  --- 0 RTS 44 [5fe 0 1 0] 
s 3.178624070 _0_ MAC  --- 0 CTS 38 [4c4 1 0 0] 
r 3.178928096 _1_ MAC  --- 0 CTS 38 [4c4 1 0 0] 
s 3.178938096 _1_ MAC  --- 45 ack 112 [13a 0 1 800] ------- [1:0 0:0 32 0] [14 0] 0 0
r 3.179834122 _0_ MAC  --- 45 ack 60 [13a 0 1 800] ------- [1:0 0:0 32 0] [14 0] 1 0
s 3.179844122 _0_ MAC  --- 0 ACK 38 [0 1 0 0] 
r 3.179859122 _0_ AGT  --- 45 ack 60 [13a 0 1 800] ------- [1:0 0:0 32 0] [14 0] 1 0
s 3.179859122 _0_ AGT  --- 46 tcp 1040 [0 0 0 0] ------- [0:0 1:0 32 0] [29 0] 0 0
r 3.179859122 _0_ RTR  --- 46 tcp 1040 [0 0 0 0] ------- [0:0 1:0 32 0] [29 0] 0 0
s 3.179859122 _0_ RTR  --- 46 tcp 1060 [0 0 0 0] ------- [0:0 1:0 32 1] [29 0] 0 0
s 3.179859122 _0_ AGT  --- 47 tcp 1040 [0 0 0 0] ------- [0:0 1:0 32 0] [30 0] 0 0
r 3.179859122 _0_ RTR  --- 47 tcp 1040 [0 0 0 0] ------- [0:0 1:0 32 0] [30 0] 0 0
s 3.179859122 _0_ RTR  --- 47 tcp 1060 [0 0 0 0] ------- [0:0 1:0 32 1] [30 0] 0 0
r 3.180148148 _1_ MAC  --- 0 ACK 38 [0 1 0 0] 
s 3.180398122 _0_ MAC  --- 0 RTS 44 [253e 1 0 0] 
r 3.180750148 _1_ MAC  --- 0 RTS 44 [253e 1 0 0] 
s 3.180760148 _1_ MAC  --- 0 CTS 38 [2404 0 0 0] 
r 3.181064174 _0_ MAC  --- 0 CTS 38 [2404 0 0 0] 
s 3.181074174 _0_ MAC  --- 25 tcp 1112 [13a 1 0 800] ------- [0:0 1:0 32 1] [15 0] 0 0
r 3.189970200 _1_ MAC  --- 25 tcp 1060 [13a 1 0 800] ------- [0:0 1:0 32 1] [15 0] 1 0
s 3.189980200 _1_ MAC  --- 0 ACK 38 [0 0 0 0] 
r 3.189995200 _1_ AGT  --- 25 tcp 1060 [13a 1 0 800] ------- [0:0 1:0 32 1] [15 0] 1 0
s 3.189995200 _1_ AGT  --- 48 ack 40 [0 0 0 0] ------- [1:0 0:0 32 0] [15 0] 0 0
r 3.189995200 _1_ RTR  --- 48 ack 40 [0 0 0 0] ------- [1:0 0:0 32 0] [15 0] 0 0
s 3.189995200 _1_ RTR  --- 48 ack 60 [0 0 0 0] ------- [1:0 0:0 32 0] [15 0] 0 0
r 3.190284227 _0_ MAC  --- 0 ACK 38 [0 0 0 0] 