M 0.0 nn 50 x 670 y 670 rp dsr
M 0.0 sc ../mobility/scene/scen-670x670-50-600-20-0 cp ../mobility/scene/cbr-50-10-4-512 seed 0.0
M 0.0 prop Propagation/TwoRayGround ant Antenna/OmniAntenna
Sconfig 0.00000 tap: on snoop: rts? on errs? on
Sconfig 0.00000 salvage: on !bd replies? on
Sconfig 0.00000 grat error: on grat reply: on
Sconfig 0.00000 $reply for props: on ring 0 search: on
Sconfig 0.00000 using MOBICACHE
s 29.031284241 _9_ AGT  --- 0 cbr 512 [0 0 0 0] ------- [9:2 11:0 32 0] [0] 0 2
r 29.031284241 _9_ RTR  --- 0 cbr 512 [0 0 0 0] ------- [9:2 11:0 32 0] [0] 0 2
s 29.039395394 _9_ RTR  --- 1 DSR 32 [0 0 0 0] ------- [9:255 11:255 32 0] 1 [1 1] [0 1 0 0->0] [0 0 0 0->0]
r 29.040507483 _43_ RTR  --- 1 DSR 32 [0 ffffffff 9 800] ------- [9:255 11:255 32 0] 1 [1 1] [0 1 0 0->0] [0 0 0 0->0]
r 29.040507573 _16_ RTR  --- 1 DSR 32 [0 ffffffff 9 800] ------- [9:255 11:255 32 0] 1 [1 1] [0 1 0 0->0] [0 0 0 0->0]
r 29.040507625 _29_ RTR  --- 1 DSR 32 [0 ffffffff 9 800] ------- [9:255 11:255 32 0] 1 [1 1] [0 1 0 0->0] [0 0 0 0->0]
r 29.040507752 _10_ RTR  --- 1 DSR 32 [0 ffffffff 9 800] ------- [9:255 11:255 32 0] 1 [1 1] [0 1 0 0->0] [0 0 0 0->0]
r 29.040507774 _14_ RTR  --- 1 DSR 32 [0 ffffffff 9 800] ------- [9:255 11:255 32 0] 1 [1 1] [0 1 0 0->0] [0 0 0 0->0]
r 29.040507784 _22_ RTR  --- 1 DSR 32 [0 ffffffff 9 800] ------- [9:255 11:255 32 0] 1 [1 1] [0 1 0 0->0] [0 0 0 0->0]
r 29.040507908 _12_ RTR  --- 1 DSR 32 [0 ffffffff 9 800] ------- [9:255 11:255 32 0] 1 [1 1] [0 1 0 0->0] [0 0 0 0->0]
r 29.040507952 _1_ RTR  --- 1 DSR 32 [0 ffffffff 9 800] ------- [9:255 11:255 32 0] 1 [1 1] [0 1 0 0->0] [0 0 0 0->0]
r 29.040507959 _34_ RTR  --- 1 DSR 32 [0 ffffffff 9 800] ------- [9:255 11:255 32 0] 1 [1 1] [0 1 0 0->0] [0 0 0 0->0]
r 29.040507982 _0_ RTR  --- 1 DSR 32 [0 ffffffff 9 800] ------- [9:255 11:255 32 0] 1 [1 1] [0 1 0 0->0] [0 0 0 0->0]
r 29.040508013 _2_ RTR  --- 1 DSR 32 [0 ffffffff 9 800] ------- [9:255 11:255 32 0] 1 [1 1] [0 1 0 0->0] [0 0 0 0->0]
r 29.040508044 _47_ RTR  --- 1 DSR 32 [0 ffffffff 9 800] ------- [9:255 11:255 32 0] 1 [1 1] [0 1 0 0->0] [0 0 0 0->0]
r 29.040508077 _26_ RTR  --- 1 DSR 32 [0 ffffffff 9 800] ------- [9:255 11:255 32 0] 1 [1 1] [0 1 0 0->0] [0 0 0 0->0]
r 29.040508077 _33_ RTR  --- 1 DSR 32 [0 ffffffff 9 800] ------- [9:255 11:255 32 0] 1 [1 1] [0 1 0 0->0] [0 0 0 0->0]
r 29.040508095 _39_ RTR  --- 1 DSR 32 [0 ffffffff 9 800] ------- [9:255 11:255 32 0] 1 [1 1] [0 1 0 0->0] [0 0 0 0->0]
r 29.040508101 _45_ RTR  --- 1 DSR 32 [0 ffffffff 9 800] ------- [9:255 11:255 32 0] 1 [1 1] [0 1 0 0->0] [0 0 0 0->0]
r 29.040508124 _40_ RTR  --- 1 DSR 32 [0 ffffffff 9 800] ------- [9:255 11:255 32 0] 1 [1 1] [0 1 0 0->0] [0 0 0 0->0]
r 29.040508126 _46_ RTR  --- 1 DSR 32 [0 ffffffff 9 800] ------- [9:255 11:255 32 0] 1 [1 1] [0 1 0 0->0] [0 0 0 0->0]
r 29.040508127 _17_ RTR  --- 1 DSR 32 [0 ffffffff 9 800] ------- [9:255 11:255 32 0] 1 [1 1] [0 1 0 0->0] [0 0 0 0->0]
r 29.040508197 _21_ RTR  --- 1 DSR 32 [0 ffffffff 9 800] ------- [9:255 11:255 32 0] 1 [1 1] [0 1 0 0->0] [0 0 0 0->0]
r 29.040508208 _27_ RTR  --- 1 DSR 32 [0 ffffffff 9 800] ------- [9:255 11:255 32 0] 1 [1 1] [0 1 0 0->0] [0 0 0 0->0]
s 29.062900679 _9_ RTR  --- 2 DSR 32 [0 0 0 0] ------- [9:255 11:255 32 0] 1 [1 2] [0 2 0 0->16] [0 0 0 0->0]
r 29.063952768 _43_ RTR  --- 2 DSR 32 [0 ffffffff 9 800] ------- [9:255 11:255 32 0] 1 [1 2] [0 2 0 0->16] [0 0 0 0->0]
r 29.063952858 _16_ RTR  --- 2 DSR 32 [0 ffffffff 9 800] ------- [9:255 11:255 32 0] 1 [1 2] [0 2 0 0->16] [0 0 0 0->0]
r 29.063952910 _29_ RTR  --- 2 DSR 32 [0 ffffffff 9 800] ------- [9:255 11:255 32 0] 1 [1 2] [0 2 0 0->16] [0 0 0 0->0]
r 29.063953037 _10_ RTR  --- 2 DSR 32 [0 ffffffff 9 800] ------- [9:255 11:255 32 0] 1 [1 2] [0 2 0 0->16] [0 0 0 0->0]
r 29.063953059 _14_ RTR  --- 2 DSR 32 [0 ffffffff 9 800] ------- [9:255 11:255 32 0] 1 [1 2] [0 2 0 0->16] [0 0 0 0->0]
r 29.063953069 _22_ RTR  --- 2 DSR 32 [0 ffffffff 9 800] ------- [9:255 11:255 32 0] 1 [1 2] [0 2 0 0->16] [0 0 0 0->0]
r 29.063953193 _12_ RTR  --- 2 DSR 32 [0 ffffffff 9 800] ------- [9:255 11:255 32 0] 1 [1 2] [0 2 0 0->16] [0 0 0 0->0]
r 29.063953237 _1_ RTR  --- 2 DSR 32 [0 ffffffff 9 800] ------- [9:255 11:255 32 0] 1 [1 2] [0 2 0 0->16] [0 0 0 0->0]
r 29.063953244 _34_ RTR  --- 2 DSR 32 [0 ffffffff 9 800] ------- [9:255 11:255 32 0] 1 [1 2] [0 2 0 0->16] [0 0 0 0->0]
r 29.063953268 _0_ RTR  --- 2 DSR 32 [0 ffffffff 9 800] ------- [9:255 11:255 32 0] 1 [1 2] [0 2 0 0->16] [0 0 0 0->0]
r 29.063953298 _2_ RTR  --- 2 DSR 32 [0 ffffffff 9 800] ------- [9:255 11:255 32 0] 1 [1 2] [0 2 0 0->16] [0 0 0 0->0]
r 29.063953329 _47_ RTR  --- 2 DSR 32 [0 ffffffff 9 800] ------- [9:255 11:255 32 0] 1 [1 2] [0 2 0 0->16] [0 0 0 0->0]
r 29.063953362 _26_ RTR  --- 2 DSR 32 [0 ffffffff 9 800] ------- [9:255 11:255 32 0] 1 [1 2] [0 2 0 0->16] [0 0 0 0->0]
r 29.063953362 _33_ RTR  --- 2 DSR 32 [0 ffffffff 9 800] ------- [9:255 11:255 32 0] 1 [1 2] [0 2 0 0->16] [0 0 0 0->0]
r 29.063953380 _39_ RTR  --- 2 DSR 32 [0 ffffffff 9 800] ------- [9:255 11:255 32 0] 1 [1 2] [0 2 0 0->16] [0 0 0 0->0]
r 29.063953386 _45_ RTR  --- 2 DSR 32 [0 ffffffff 9 800] ------- [9:255 11:255 32 0] 1 [1 2] [0 2 0 0->16] [0 0 0 0->0]
r 29.063953409 _40_ RTR  --- 2 DSR 32 [0 ffffffff 9 800] ------- [9:255 11:255 32 0] 1 [1 2] [0 2 0 0->16] [0 0 0 0->0]
r 29.063953411 _46_ RTR  --- 2 DSR 32 [0 ffffffff 9 800] ------- [9:255 11:255 32 0] 1 [1 2] [0 2 0 0->16] [0 0 0 0->0]
r 29.063953412 _17_ RTR  --- 2 DSR 32 [0 ffffffff 9 800] ------- [9:255 11:255 32 0] 1 [1 2] [0 2 0 0->16] [0 0 0 0->0]
r 29.063953482 _21_ RTR  --- 2 DSR 32 [0 ffffffff 9 800] ------- [9:255 11:255 32 0] 1 [1 2] [0 2 0 0->16] [0 0 0 0->0]
r 29.063953493 _27_ RTR  --- 2 DSR 32 [0 ffffffff 9 800] ------- [9:255 11:255 32 0] 1 [1 2] [0 2 0 0->16] [0 0 0 0->0]
f 29.064140108 _2_ RTR  --- 2 DSR 48 [0 ffffffff 9 800] ------- [9:255 11:255 32 0] 2 [1 2] [0 2 0 0->16] [0 0 0 0->0]
f 29.064982679 _26_ RTR  --- 2 DSR 48 [0 ffffffff 9 800] ------- [9:255 11:255 32 0] 2 [1 2] [0 2 0 0->16] [0 0 0 0->0]
r 29.065200406 _45_ RTR  --- 2 DSR 48 [0 ffffffff 2 800] ------- [9:255 11:255 32 0] 2 [1 2] [0 2 0 0->16] [0 0 0 0->0]
r 29.065200423 _1_ RTR  --- 2 DSR 48 [0 ffffffff 2 800] ------- [9:255 11:255 32 0] 2 [1 2] [0 2 0 0->16] [0 0 0 0->0]
r 29.065200429 _33_ RTR  --- 2 DSR 48 [0 ffffffff 2 800] ------- [9:255 11:255 32 0] 2 [1 2] [0 2 0 0->16] [0 0 0 0->0]
r 29.065200492 _19_ RTR  --- 2 DSR 48 [0 ffffffff 2 800] ------- [9:255 11:255 32 0] 2 [1 2] [0 2 0 0->16] [0 0 0 0->0]
r 29.065200515 _26_ RTR  --- 2 DSR 48 [0 ffffffff 2 800] ------- [9:255 11:255 32 0] 2 [1 2] [0 2 0 0->16] [0 0 0 0->0]
r 29.065200546 _12_ RTR  --- 2 DSR 48 [0 ffffffff 2 800] ------- [9:255 11:255 32 0] 2 [1 2] [0 2 0 0->16] [0 0 0 0->0]
r 29.065200564 _40_ RTR  --- 2 DSR 48 [0 ffffffff 2 800] ------- [9:255 11:255 32 0] 2 [1 2] [0 2 0 0->16] [0 0 0 0->0]
r 29.065200715 _43_ RTR  --- 2 DSR 48 [0 ffffffff 2 800] ------- [9:255 11:255 32 0] 2 [1 2] [0 2 0 0->16] [0 0 0 0->0]
r 29.065200727 _9_ RTR  --- 2 DSR 48 [0 ffffffff 2 800] ------- [9:255 11:255 32 0] 2 [1 2] [0 2 0 0->16] [0 0 0 0->0]
r 29.065200895 _16_ RTR  --- 2 DSR 48 [0 ffffffff 2 800] ------- [9:255 11:255 32 0] 2 [1 2] [0 2 0 0->16] [0 0 0 0->0]
f 29.065612835 _46_ RTR  --- 2 DSR 48 [0 ffffffff 9 800] ------- [9:255 11:255 32 0] 2 [1 2] [0 2 0 0->16] [0 0 0 0->0]
f 29.065680160 _40_ RTR  --- 2 DSR 48 [0 ffffffff 9 800] ------- [9:255 11:255 32 0] 2 [1 2] [0 2 0 0->16] [0 0 0 0->0]
f 29.065690872 _47_ RTR  --- 2 DSR 48 [0 ffffffff 9 800] ------- [9:255 11:255 32 0] 2 [1 2] [0 2 0 0->16] [0 0 0 0->0]
f 29.065802576 _10_ RTR  --- 2 DSR 48 [0 ffffffff 9 800] ------- [9:255 11:255 32 0] 2 [1 2] [0 2 0 0->16] [0 0 0 0->0]
r 29.066470610 _33_ RTR  --- 2 DSR 48 [0 ffffffff 1a 800] ------- [9:255 11:255 32 0] 2 [1 2] [0 2 0 0->16] [0 0 0 0->0]
r 29.066470922 _2_ RTR  --- 2 DSR 48 [0 ffffffff 1a 800] ------- [9:255 11:255 32 0] 2 [1 2] [0 2 0 0->16] [0 0 0 0->0]
r 29.066471180 _19_ RTR  --- 2 DSR 48 [0 ffffffff 1a 800] ------- [9:255 11:255 32 0] 2 [1 2] [0 2 0 0->16] [0 0 0 0->0]
r 29.066471198 _9_ RTR  --- 2 DSR 48 [0 ffffffff 1a 800] ------- [9:255 11:255 32 0] 2 [1 2] [0 2 0 0->16] [0 0 0 0->0]
r 29.066471204 _1_ RTR  --- 2 DSR 48 [0 ffffffff 1a 800] ------- [9:255 11:255 32 0] 2 [1 2] [0 2 0 0->16] [0 0 0 0->0]
r 29.066471220 _45_ RTR  --- 2 DSR 48 [0 ffffffff 1a 800] ------- [9:255 11:255 32 0] 2 [1 2] [0 2 0 0->16] [0 0 0 0->0]
r 29.066471239 _43_ RTR  --- 2 DSR 48 [0 ffffffff 1a 800] ------- [9:255 11:255 32 0] 2 [1 2] [0 2 0 0->16] [0 0 0 0->0]
r 29.066471247 _14_ RTR  --- 2 DSR 48 [0 ffffffff 1a 800] ------- [9:255 11:255 32 0] 2 [1 2] [0 2 0 0->16] [0 0 0 0->0]
r 29.066471298 _12_ RTR  --- 2 DSR 48 [0 ffffffff 1a 800] ------- [9:255 11:255 32 0] 2 [1 2] [0 2 0 0->16] [0 0 0 0->0]
r 29.066471307 _16_ RTR  --- 2 DSR 48 [0 ffffffff 1a 800] ------- [9:255 11:255 32 0] 2 [1 2] [0 2 0 0->16] [0 0 0 0->0]
f 29.066808109 _21_ RTR  --- 2 DSR 48 [0 ffffffff 9 800] ------- [9:255 11:255 32 0] 2 [1 2] [0 2 0 0->16] [0 0 0 0->0]
f 29.067330359 _17_ RTR  --- 2 DSR 48 [0 ffffffff 9 800] ------- [9:255 11:255 32 0] 2 [1 2] [0 2 0 0->16] [0 0 0 0->0]
f 29.067465810 _19_ RTR  --- 2 DSR 68 [0 ffffffff 2 800] ------- [9:255 11:255 32 0] 3 [1 2] [0 2 0 0->16] [0 0 0 0->0]
f 29.067740207 _45_ RTR  --- 2 DSR 48 [0 ffffffff 9 800] ------- [9:255 11:255 32 0] 2 [1 2] [0 2 0 0->16] [0 0 0 0->0]
r 29.067748479 _48_ RTR  --- 2 DSR 48 [0 ffffffff 15 800] ------- [9:255 11:255 32 0] 2 [1 2] [0 2 0 0->16] [0 0 0 0->0]
r 29.067748527 _39_ RTR  --- 2 DSR 48 [0 ffffffff 15 800] ------- [9:255 11:255 32 0] 2 [1 2] [0 2 0 0->16] [0 0 0 0->0]
r 29.067748544 _42_ RTR  --- 2 DSR 48 [0 ffffffff 15 800] ------- [9:255 11:255 32 0] 2 [1 2] [0 2 0 0->16] [0 0 0 0->0]
r 29.067748545 _46_ RTR  --- 2 DSR 48 [0 ffffffff 15 800] ------- [9:255 11:255 32 0] 2 [1 2] [0 2 0 0->16] [0 0 0 0->0]
r 29.067748571 _32_ RTR  --- 2 DSR 48 [0 ffffffff 15 800] ------- [9:255 11:255 32 0] 2 [1 2] [0 2 0 0->16] [0 0 0 0->0]
r 29.067748643 _41_ RTR  --- 2 DSR 48 [0 ffffffff 15 800] ------- [9:255 11:255 32 0] 2 [1 2] [0 2 0 0->16] [0 0 0 0->0]
r 29.067748650 _44_ RTR  --- 2 DSR 48 [0 ffffffff 15 800] ------- [9:255 11:255 32 0] 2 [1 2] [0 2 0 0->16] [0 0 0 0->0]
r 29.067748691 _12_ RTR  --- 2 DSR 48 [0 ffffffff 15 800] ------- [9:255 11:255 32 0] 2 [1 2] [0 2 0 0->16] [0 0 0 0->0]
r 29.067748743 _18_ RTR  --- 2 DSR 48 [0 ffffffff 15 800] ------- [9:255 11:255 32 0] 2 [1 2] [0 2 0 0->16] [0 0 0 0->0]
r 29.067748764 _47_ RTR  --- 2 DSR 48 [0 ffffffff 15 800] ------- [9:255 11:255 32 0] 2 [1 2] [0 2 0 0->16] [0 0 0 0->0]
r 29.067748782 _25_ RTR  --- 2 DSR 48 [0 ffffffff 15 800] ------- [9:255 11:255 32 0] 2 [1 2] [0 2 0 0->16] [0 0 0 0->0]
r 29.067748787 _40_ RTR  --- 2 DSR 48 [0 ffffffff 15 800] ------- [9:255 11:255 32 0] 2 [1 2] [0 2 0 0->16] [0 0 0 0->0]
r 29.067748792 _13_ RTR  --- 2 DSR 48 [0 ffffffff 15 800] ------- [9:255 11:255 32 0] 2 [1 2] [0 2 0 0->16] [0 0 0 0->0]
r 29.067748823 _1_ RTR  --- 2 DSR 48 [0 ffffffff 15 800] ------- [9:255 11:255 32 0] 2 [1 2] [0 2 0 0->16] [0 0 0 0->0]
r 29.067748825 _43_ RTR  --- 2 DSR 48 [0 ffffffff 15 800] ------- [9:255 11:255 32 0] 2 [1 2] [0 2 0 0->16] [0 0 0 0->0]
r 29.067748832 _27_ RTR  --- 2 DSR 48 [0 ffffffff 15 800] ------- [9:255 11:255 32 0] 2 [1 2] [0 2 0 0->16] [0 0 0 0->0]
r 29.067748857 _29_ RTR  --- 2 DSR 48 [0 ffffffff 15 800] ------- [9:255 11:255 32 0] 2 [1 2] [0 2 0 0->16] [0 0 0 0->0]
r 29.067748875 _5_ RTR  --- 2 DSR 48 [0 ffffffff 15 800] ------- [9:255 11:255 32 0] 2 [1 2] [0 2 0 0->16] [0 0 0 0->0]
r 29.067748876 _0_ RTR  --- 2 DSR 48 [0 ffffffff 15 800] ------- [9:255 11:255 32 0] 2 [1 2] [0 2 0 0->16] [0 0 0 0->0]
r 29.067748882 _3_ RTR  --- 2 DSR 48 [0 ffffffff 15 800] ------- [9:255 11:255 32 0] 2 [1 2] [0 2 0 0->16] [0 0 0 0->0]
r 29.067748907 _20_ RTR  --- 2 DSR 48 [0 ffffffff 15 800] ------- [9:255 11:255 32 0] 2 [1 2] [0 2 0 0->16] [0 0 0 0->0]
r 29.067748911 _9_ RTR  --- 2 DSR 48 [0 ffffffff 15 800] ------- [9:255 11:255 32 0] 2 [1 2] [0 2 0 0->16] [0 0 0 0->0]
r 29.067748933 _45_ RTR  --- 2 DSR 48 [0 ffffffff 15 800] ------- [9:255 11:255 32 0] 2 [1 2] [0 2 0 0->16] [0 0 0 0->0]
f 29.067754797 _0_ RTR  --- 2 DSR 48 [0 ffffffff 9 800] ------- [9:255 11:255 32 0] 2 [1 2] [0 2 0 0->16] [0 0 0 0->0]
f 29.068172356 _25_ RTR  --- 2 DSR 68 [0 ffffffff 15 800] ------- [9:255 11:255 32 0] 3 [1 2] [0 2 0 0->16] [0 0 0 0->0]
r 29.068698958 _45_ RTR  --- 2 DSR 48 [0 ffffffff 28 800] ------- [9:255 11:255 32 0] 2 [1 2] [0 2 0 0->16] [0 0 0 0->0]
r 29.068698979 _1_ RTR  --- 2 DSR 48 [0 ffffffff 28 800] ------- [9:255 11:255 32 0] 2 [1 2] [0 2 0 0->16] [0 0 0 0->0]
r 29.068699011 _12_ RTR  --- 2 DSR 48 [0 ffffffff 28 800] ------- [9:255 11:255 32 0] 2 [1 2] [0 2 0 0->16] [0 0 0 0->0]
r 29.068699243 _2_ RTR  --- 2 DSR 48 [0 ffffffff 28 800] ------- [9:255 11:255 32 0] 2 [1 2] [0 2 0 0->16] [0 0 0 0->0]
r 29.068699335 _19_ RTR  --- 2 DSR 48 [0 ffffffff 28 800] ------- [9:255 11:255 32 0] 2 [1 2] [0 2 0 0->16] [0 0 0 0->0]
r 29.068699341 _32_ RTR  --- 2 DSR 48 [0 ffffffff 28 800] ------- [9:255 11:255 32 0] 2 [1 2] [0 2 0 0->16] [0 0 0 0->0]
r 29.068699450 _43_ RTR  --- 2 DSR 48 [0 ffffffff 28 800] ------- [9:255 11:255 32 0] 2 [1 2] [0 2 0 0->16] [0 0 0 0->0]
r 29.068699464 _21_ RTR  --- 2 DSR 48 [0 ffffffff 28 800] ------- [9:255 11:255 32 0] 2 [1 2] [0 2 0 0->16] [0 0 0 0->0]
r 29.068699516 _9_ RTR  --- 2 DSR 48 [0 ffffffff 28 800] ------- [9:255 11:255 32 0] 2 [1 2] [0 2 0 0->16] [0 0 0 0->0]
r 29.068699562 _33_ RTR  --- 2 DSR 48 [0 ffffffff 28 800] ------- [9:255 11:255 32 0] 2 [1 2] [0 2 0 0->16] [0 0 0 0->0]
f 29.069073397 _34_ RTR  --- 2 DSR 48 [0 ffffffff 9 800] ------- [9:255 11:255 32 0] 2 [1 2] [0 2 0 0->16] [0 0 0 0->0]
f 29.069306822 _12_ RTR  --- 2 DSR 48 [0 ffffffff 9 800] ------- [9:255 11:255 32 0] 2 [1 2] [0 2 0 0->16] [0 0 0 0->0]
r 29.069789120 _1_ RTR  --- 2 DSR 48 [0 ffffffff 2d 800] ------- [9:255 11:255 32 0] 2 [1 2] [0 2 0 0->16] [0 0 0 0->0]
r 29.069789130 _40_ RTR  --- 2 DSR 48 [0 ffffffff 2d 800] ------- [9:255 11:255 32 0] 2 [1 2] [0 2 0 0->16] [0 0 0 0->0]
r 29.069789239 _12_ RTR  --- 2 DSR 48 [0 ffffffff 2d 800] ------- [9:255 11:255 32 0] 2 [1 2] [0 2 0 0->16] [0 0 0 0->0]
r 29.069789256 _2_ RTR  --- 2 DSR 48 [0 ffffffff 2d 800] ------- [9:255 11:255 32 0] 2 [1 2] [0 2 0 0->16] [0 0 0 0->0]
r 29.069789359 _19_ RTR  --- 2 DSR 48 [0 ffffffff 2d 800] ------- [9:255 11:255 32 0] 2 [1 2] [0 2 0 0->16] [0 0 0 0->0]
r 29.069789578 _33_ RTR  --- 2 DSR 48 [0 ffffffff 2d 800] ------- [9:255 11:255 32 0] 2 [1 2] [0 2 0 0->16] [0 0 0 0->0]
r 29.069789616 _43_ RTR  --- 2 DSR 48 [0 ffffffff 2d 800] ------- [9:255 11:255 32 0] 2 [1 2] [0 2 0 0->16] [0 0 0 0->0]
r 29.069789663 _26_ RTR  --- 2 DSR 48 [0 ffffffff 2d 800] ------- [9:255 11:255 32 0] 2 [1 2] [0 2 0 0->16] [0 0 0 0->0]
r 29.069789665 _9_ RTR  --- 2 DSR 48 [0 ffffffff 2d 800] ------- [9:255 11:255 32 0] 2 [1 2] [0 2 0 0->16] [0 0 0 0->0]
r 29.069789683 _32_ RTR  --- 2 DSR 48 [0 ffffffff 2d 800] ------- [9:255 11:255 32 0] 2 [1 2] [0 2 0 0->16] [0 0 0 0->0]
r 29.069789782 _21_ RTR  --- 2 DSR 48 [0 ffffffff 2d 800] ------- [9:255 11:255 32 0] 2 [1 2] [0 2 0 0->16] [0 0 0 0->0]
f 29.070373524 _22_ RTR  --- 2 DSR 48 [0 ffffffff 9 800] ------- [9:255 11:255 32 0] 2 [1 2] [0 2 0 0->16] [0 0 0 0->0]
f 29.070767913 _39_ RTR  --- 2 DSR 48 [0 ffffffff 9 800] ------- [9:255 11:255 32 0] 2 [1 2] [0 2 0 0->16] [0 0 0 0->0]
r 29.071099743 _2_ RTR  --- 2 DSR 68 [0 ffffffff 13 800] ------- [9:255 11:255 32 0] 3 [1 2] [0 2 0 0->16] [0 0 0 0->0]
r 29.071099760 _45_ RTR  --- 2 DSR 68 [0 ffffffff 13 800] ------- [9:255 11:255 32 0] 3 [1 2] [0 2 0 0->16] [0 0 0 0->0]
r 29.071099901 _1_ RTR  --- 2 DSR 68 [0 ffffffff 13 800] ------- [9:255 11:255 32 0] 3 [1 2] [0 2 0 0->16] [0 0 0 0->0]
r 29.071099907 _40_ RTR  --- 2 DSR 68 [0 ffffffff 13 800] ------- [9:255 11:255 32 0] 3 [1 2] [0 2 0 0->16] [0 0 0 0->0]
r 29.071099931 _33_ RTR  --- 2 DSR 68 [0 ffffffff 13 800] ------- [9:255 11:255 32 0] 3 [1 2] [0 2 0 0->16] [0 0 0 0->0]
r 29.071100024 _26_ RTR  --- 2 DSR 68 [0 ffffffff 13 800] ------- [9:255 11:255 32 0] 3 [1 2] [0 2 0 0->16] [0 0 0 0->0]
r 29.071100033 _12_ RTR  --- 2 DSR 68 [0 ffffffff 13 800] ------- [9:255 11:255 32 0] 3 [1 2] [0 2 0 0->16] [0 0 0 0->0]
f 29.071187771 _1_ RTR  --- 2 DSR 48 [0 ffffffff 9 800] ------- [9:255 11:255 32 0] 2 [1 2] [0 2 0 0->16] [0 0 0 0->0]
f 29.071422814 _16_ RTR  --- 2 DSR 48 [0 ffffffff 9 800] ------- [9:255 11:255 32 0] 2 [1 2] [0 2 0 0->16] [0 0 0 0->0]
f 29.071590748 _41_ RTR  --- 2 DSR 68 [0 ffffffff 15 800] ------- [9:255 11:255 32 0] 3 [1 2] [0 2 0 0->16] [0 0 0 0->0]
r 29.071644536 _13_ RTR  --- 2 DSR 68 [0 ffffffff 19 800] ------- [9:255 11:255 32 0] 3 [1 2] [0 2 0 0->16] [0 0 0 0->0]
r 29.071644668 _24_ RTR  --- 2 DSR 68 [0 ffffffff 19 800] ------- [9:255 11:255 32 0] 3 [1 2] [0 2 0 0->16] [0 0 0 0->0]
r 29.071644706 _8_ RTR  --- 2 DSR 68 [0 ffffffff 19 800] ------- [9:255 11:255 32 0] 3 [1 2] [0 2 0 0->16] [0 0 0 0->0]
r 29.071644770 _5_ RTR  --- 2 DSR 68 [0 ffffffff 19 800] ------- [9:255 11:255 32 0] 3 [1 2] [0 2 0 0->16] [0 0 0 0->0]
r 29.071644870 _3_ RTR  --- 2 DSR 68 [0 ffffffff 19 800] ------- [9:255 11:255 32 0] 3 [1 2] [0 2 0 0->16] [0 0 0 0->0]
r 29.071645098 _31_ RTR  --- 2 DSR 68 [0 ffffffff 19 800] ------- [9:255 11:255 32 0] 3 [1 2] [0 2 0 0->16] [0 0 0 0->0]
r 29.071645126 _28_ RTR  --- 2 DSR 68 [0 ffffffff 19 800] ------- [9:255 11:255 32 0] 3 [1 2] [0 2 0 0->16] [0 0 0 0->0]
f 29.071730297 _31_ RTR  --- 2 DSR 92 [0 ffffffff 19 800] ------- [9:255 11:255 32 0] 4 [1 2] [0 2 0 0->16] [0 0 0 0->0]
f 29.072191265 _27_ RTR  --- 2 DSR 48 [0 ffffffff 9 800] ------- [9:255 11:255 32 0] 2 [1 2] [0 2 0 0->16] [0 0 0 0->0]
f 29.072259220 _14_ RTR  --- 2 DSR 48 [0 ffffffff 9 800] ------- [9:255 11:255 32 0] 2 [1 2] [0 2 0 0->16] [0 0 0 0->0]
f 29.072420663 _42_ RTR  --- 2 DSR 68 [0 ffffffff 15 800] ------- [9:255 11:255 32 0] 3 [1 2] [0 2 0 0->16] [0 0 0 0->0]
r 29.072515295 _30_ RTR  --- 2 DSR 48 [0 ffffffff 11 800] ------- [9:255 11:255 32 0] 2 [1 2] [0 2 0 0->16] [0 0 0 0->0]
r 29.072515299 _11_ RTR  --- 2 DSR 48 [0 ffffffff 11 800] ------- [9:255 11:255 32 0] 2 [1 2] [0 2 0 0->16] [0 0 0 0->0]
r 29.072515319 _14_ RTR  --- 2 DSR 48 [0 ffffffff 11 800] ------- [9:255 11:255 32 0] 2 [1 2] [0 2 0 0->16] [0 0 0 0->0]
r 29.072515348 _10_ RTR  --- 2 DSR 48 [0 ffffffff 11 800] ------- [9:255 11:255 32 0] 2 [1 2] [0 2 0 0->16] [0 0 0 0->0]
r 29.072515350 _34_ RTR  --- 2 DSR 48 [0 ffffffff 11 800] ------- [9:255 11:255 32 0] 2 [1 2] [0 2 0 0->16] [0 0 0 0->0]
r 29.072515366 _36_ RTR  --- 2 DSR 48 [0 ffffffff 11 800] ------- [9:255 11:255 32 0] 2 [1 2] [0 2 0 0->16] [0 0 0 0->0]
r 29.072515495 _22_ RTR  --- 2 DSR 48 [0 ffffffff 11 800] ------- [9:255 11:255 32 0] 2 [1 2] [0 2 0 0->16] [0 0 0 0->0]
r 29.072515537 _16_ RTR  --- 2 DSR 48 [0 ffffffff 11 800] ------- [9:255 11:255 32 0] 2 [1 2] [0 2 0 0->16] [0 0 0 0->0]
r 29.072515652 _29_ RTR  --- 2 DSR 48 [0 ffffffff 11 800] ------- [9:255 11:255 32 0] 2 [1 2] [0 2 0 0->16] [0 0 0 0->0]
r 29.072515686 _9_ RTR  --- 2 DSR 48 [0 ffffffff 11 800] ------- [9:255 11:255 32 0] 2 [1 2] [0 2 0 0->16] [0 0 0 0->0]
r 29.072515766 _43_ RTR  --- 2 DSR 48 [0 ffffffff 11 800] ------- [9:255 11:255 32 0] 2 [1 2] [0 2 0 0->16] [0 0 0 0->0]
r 29.072515767 _7_ RTR  --- 2 DSR 48 [0 ffffffff 11 800] ------- [9:255 11:255 32 0] 2 [1 2] [0 2 0 0->16] [0 0 0 0->0]
r 29.072515773 _0_ RTR  --- 2 DSR 48 [0 ffffffff 11 800] ------- [9:255 11:255 32 0] 2 [1 2] [0 2 0 0->16] [0 0 0 0->0]
f 29.072603552 _48_ RTR  --- 2 DSR 68 [0 ffffffff 15 800] ------- [9:255 11:255 32 0] 3 [1 2] [0 2 0 0->16] [0 0 0 0->0]
f 29.072808149 _33_ RTR  --- 2 DSR 48 [0 ffffffff 9 800] ------- [9:255 11:255 32 0] 2 [1 2] [0 2 0 0->16] [0 0 0 0->0]
r 29.073282361 _28_ RTR  --- 2 DSR 92 [0 ffffffff 1f 800] ------- [9:255 11:255 32 0] 4 [1 2] [0 2 0 0->16] [0 0 0 0->0]
r 29.073282482 _20_ RTR  --- 2 DSR 92 [0 ffffffff 1f 800] ------- [9:255 11:255 32 0] 4 [1 2] [0 2 0 0->16] [0 0 0 0->0]
r 29.073282625 _5_ RTR  --- 2 DSR 92 [0 ffffffff 1f 800] ------- [9:255 11:255 32 0] 4 [1 2] [0 2 0 0->16] [0 0 0 0->0]
r 29.073282809 _44_ RTR  --- 2 DSR 92 [0 ffffffff 1f 800] ------- [9:255 11:255 32 0] 4 [1 2] [0 2 0 0->16] [0 0 0 0->0]
r 29.073282843 _24_ RTR  --- 2 DSR 92 [0 ffffffff 1f 800] ------- [9:255 11:255 32 0] 4 [1 2] [0 2 0 0->16] [0 0 0 0->0]
r 29.073282844 _42_ RTR  --- 2 DSR 92 [0 ffffffff 1f 800] ------- [9:255 11:255 32 0] 4 [1 2] [0 2 0 0->16] [0 0 0 0->0]
r 29.073282908 _41_ RTR  --- 2 DSR 92 [0 ffffffff 1f 800] ------- [9:255 11:255 32 0] 4 [1 2] [0 2 0 0->16] [0 0 0 0->0]
r 29.073282953 _25_ RTR  --- 2 DSR 92 [0 ffffffff 1f 800] ------- [9:255 11:255 32 0] 4 [1 2] [0 2 0 0->16] [0 0 0 0->0]
r 29.073385703 _34_ RTR  --- 2 DSR 48 [0 ffffffff 16 800] ------- [9:255 11:255 32 0] 2 [1 2] [0 2 0 0->16] [0 0 0 0->0]
r 29.073385704 _29_ RTR  --- 2 DSR 48 [0 ffffffff 16 800] ------- [9:255 11:255 32 0] 2 [1 2] [0 2 0 0->16] [0 0 0 0->0]
r 29.073385705 _10_ RTR  --- 2 DSR 48 [0 ffffffff 16 800] ------- [9:255 11:255 32 0] 2 [1 2] [0 2 0 0->16] [0 0 0 0->0]
r 29.073385719 _16_ RTR  --- 2 DSR 48 [0 ffffffff 16 800] ------- [9:255 11:255 32 0] 2 [1 2] [0 2 0 0->16] [0 0 0 0->0]
r 29.073385811 _0_ RTR  --- 2 DSR 48 [0 ffffffff 16 800] ------- [9:255 11:255 32 0] 2 [1 2] [0 2 0 0->16] [0 0 0 0->0]
r 29.073385861 _14_ RTR  --- 2 DSR 48 [0 ffffffff 16 800] ------- [9:255 11:255 32 0] 2 [1 2] [0 2 0 0->16] [0 0 0 0->0]
r 29.073385884 _9_ RTR  --- 2 DSR 48 [0 ffffffff 16 800] ------- [9:255 11:255 32 0] 2 [1 2] [0 2 0 0->16] [0 0 0 0->0]
r 29.073385919 _43_ RTR  --- 2 DSR 48 [0 ffffffff 16 800] ------- [9:255 11:255 32 0] 2 [1 2] [0 2 0 0->16] [0 0 0 0->0]
r 29.073386036 _17_ RTR  --- 2 DSR 48 [0 ffffffff 16 800] ------- [9:255 11:255 32 0] 2 [1 2] [0 2 0 0->16] [0 0 0 0->0]
r 29.073386037 _7_ RTR  --- 2 DSR 48 [0 ffffffff 16 800] ------- [9:255 11:255 32 0] 2 [1 2] [0 2 0 0->16] [0 0 0 0->0]
r 29.073386160 _36_ RTR  --- 2 DSR 48 [0 ffffffff 16 800] ------- [9:255 11:255 32 0] 2 [1 2] [0 2 0 0->16] [0 0 0 0->0]
r 29.073386279 _37_ RTR  --- 2 DSR 48 [0 ffffffff 16 800] ------- [9:255 11:255 32 0] 2 [1 2] [0 2 0 0->16] [0 0 0 0->0]
s 29.073598158 _11_ RTR  --- 3 DSR 52 [0 0 0 0] ------- [11:255 9:255 254 17] 3 [0 2] [1 2 3 9->11] [0 0 0 0->0]
f 29.073632312 _43_ RTR  --- 2 DSR 48 [0 ffffffff 9 800] ------- [9:255 11:255 32 0] 2 [1 2] [0 2 0 0->16] [0 0 0 0->0]
f 29.073700911 _29_ RTR  --- 2 DSR 48 [0 ffffffff 9 800] ------- [9:255 11:255 32 0] 2 [1 2] [0 2 0 0->16] [0 0 0 0->0]
f 29.074089555 _18_ RTR  --- 2 DSR 68 [0 ffffffff 15 800] ------- [9:255 11:255 32 0] 3 [1 2] [0 2 0 0->16] [0 0 0 0->0]
r 29.074256019 _10_ RTR  --- 2 DSR 48 [0 ffffffff e 800] ------- [9:255 11:255 32 0] 2 [1 2] [0 2 0 0->16] [0 0 0 0->0]
r 29.074256131 _16_ RTR  --- 2 DSR 48 [0 ffffffff e 800] ------- [9:255 11:255 32 0] 2 [1 2] [0 2 0 0->16] [0 0 0 0->0]
r 29.074256227 _17_ RTR  --- 2 DSR 48 [0 ffffffff e 800] ------- [9:255 11:255 32 0] 2 [1 2] [0 2 0 0->16] [0 0 0 0->0]
r 29.074256228 _22_ RTR  --- 2 DSR 48 [0 ffffffff e 800] ------- [9:255 11:255 32 0] 2 [1 2] [0 2 0 0->16] [0 0 0 0->0]
r 29.074256241 _9_ RTR  --- 2 DSR 48 [0 ffffffff e 800] ------- [9:255 11:255 32 0] 2 [1 2] [0 2 0 0->16] [0 0 0 0->0]
r 29.074256248 _34_ RTR  --- 2 DSR 48 [0 ffffffff e 800] ------- [9:255 11:255 32 0] 2 [1 2] [0 2 0 0->16] [0 0 0 0->0]
r 29.074256281 _29_ RTR  --- 2 DSR 48 [0 ffffffff e 800] ------- [9:255 11:255 32 0] 2 [1 2] [0 2 0 0->16] [0 0 0 0->0]
r 29.074256327 _43_ RTR  --- 2 DSR 48 [0 ffffffff e 800] ------- [9:255 11:255 32 0] 2 [1 2] [0 2 0 0->16] [0 0 0 0->0]
r 29.074256485 _11_ RTR  --- 2 DSR 48 [0 ffffffff e 800] ------- [9:255 11:255 32 0] 2 [1 2] [0 2 0 0->16] [0 0 0 0->0]
r 29.074256542 _0_ RTR  --- 2 DSR 48 [0 ffffffff e 800] ------- [9:255 11:255 32 0] 2 [1 2] [0 2 0 0->16] [0 0 0 0->0]
r 29.074256566 _36_ RTR  --- 2 DSR 48 [0 ffffffff e 800] ------- [9:255 11:255 32 0] 2 [1 2] [0 2 0 0->16] [0 0 0 0->0]
r 29.074256567 _30_ RTR  --- 2 DSR 48 [0 ffffffff e 800] ------- [9:255 11:255 32 0] 2 [1 2] [0 2 0 0->16] [0 0 0 0->0]
r 29.074256594 _26_ RTR  --- 2 DSR 48 [0 ffffffff e 800] ------- [9:255 11:255 32 0] 2 [1 2] [0 2 0 0->16] [0 0 0 0->0]
r 29.074256642 _33_ RTR  --- 2 DSR 48 [0 ffffffff e 800] ------- [9:255 11:255 32 0] 2 [1 2] [0 2 0 0->16] [0 0 0 0->0]
r 29.074256664 _47_ RTR  --- 2 DSR 48 [0 ffffffff e 800] ------- [9:255 11:255 32 0] 2 [1 2] [0 2 0 0->16] [0 0 0 0->0]
f 29.074465146 _30_ RTR  --- 2 DSR 68 [0 ffffffff 11 800] ------- [9:255 11:255 32 0] 3 [1 2] [0 2 0 0->16] [0 0 0 0->0]
f 29.074825842 _13_ RTR  --- 2 DSR 68 [0 ffffffff 15 800] ------- [9:255 11:255 32 0] 3 [1 2] [0 2 0 0->16] [0 0 0 0->0]
r 29.075166178 _14_ RTR  --- 2 DSR 48 [0 ffffffff a 800] ------- [9:255 11:255 32 0] 2 [1 2] [0 2 0 0->16] [0 0 0 0->0]
r 29.075166211 _16_ RTR  --- 2 DSR 48 [0 ffffffff a 800] ------- [9:255 11:255 32 0] 2 [1 2] [0 2 0 0->16] [0 0 0 0->0]
r 29.075166230 _22_ RTR  --- 2 DSR 48 [0 ffffffff a 800] ------- [9:255 11:255 32 0] 2 [1 2] [0 2 0 0->16] [0 0 0 0->0]
r 29.075166272 _34_ RTR  --- 2 DSR 48 [0 ffffffff a 800] ------- [9:255 11:255 32 0] 2 [1 2] [0 2 0 0->16] [0 0 0 0->0]
r 29.075166328 _29_ RTR  --- 2 DSR 48 [0 ffffffff a 800] ------- [9:255 11:255 32 0] 2 [1 2] [0 2 0 0->16] [0 0 0 0->0]
r 29.075166377 _9_ RTR  --- 2 DSR 48 [0 ffffffff a 800] ------- [9:255 11:255 32 0] 2 [1 2] [0 2 0 0->16] [0 0 0 0->0]
r 29.075166414 _17_ RTR  --- 2 DSR 48 [0 ffffffff a 800] ------- [9:255 11:255 32 0] 2 [1 2] [0 2 0 0->16] [0 0 0 0->0]
r 29.075166448 _43_ RTR  --- 2 DSR 48 [0 ffffffff a 800] ------- [9:255 11:255 32 0] 2 [1 2] [0 2 0 0->16] [0 0 0 0->0]
r 29.075166545 _0_ RTR  --- 2 DSR 48 [0 ffffffff a 800] ------- [9:255 11:255 32 0] 2 [1 2] [0 2 0 0->16] [0 0 0 0->0]
r 29.075166664 _36_ RTR  --- 2 DSR 48 [0 ffffffff a 800] ------- [9:255 11:255 32 0] 2 [1 2] [0 2 0 0->16] [0 0 0 0->0]
r 29.075166672 _47_ RTR  --- 2 DSR 48 [0 ffffffff a 800] ------- [9:255 11:255 32 0] 2 [1 2] [0 2 0 0->16] [0 0 0 0->0]
r 29.075166725 _7_ RTR  --- 2 DSR 48 [0 ffffffff a 800] ------- [9:255 11:255 32 0] 2 [1 2] [0 2 0 0->16] [0 0 0 0->0]
r 29.075166728 _11_ RTR  --- 2 DSR 48 [0 ffffffff a 800] ------- [9:255 11:255 32 0] 2 [1 2] [0 2 0 0->16] [0 0 0 0->0]
r 29.075166747 _30_ RTR  --- 2 DSR 48 [0 ffffffff a 800] ------- [9:255 11:255 32 0] 2 [1 2] [0 2 0 0->16] [0 0 0 0->0]
r 29.075166811 _27_ RTR  --- 2 DSR 48 [0 ffffffff a 800] ------- [9:255 11:255 32 0] 2 [1 2] [0 2 0 0->16] [0 0 0 0->0]
r 29.075166836 _39_ RTR  --- 2 DSR 48 [0 ffffffff a 800] ------- [9:255 11:255 32 0] 2 [1 2] [0 2 0 0->16] [0 0 0 0->0]
f 29.075819036 _44_ RTR  --- 2 DSR 68 [0 ffffffff 15 800] ------- [9:255 11:255 32 0] 3 [1 2] [0 2 0 0->16] [0 0 0 0->0]
r 29.076036976 _47_ RTR  --- 2 DSR 48 [0 ffffffff 1b 800] ------- [9:255 11:255 32 0] 2 [1 2] [0 2 0 0->16] [0 0 0 0->0]
r 29.076037058 _23_ RTR  --- 2 DSR 48 [0 ffffffff 1b 800] ------- [9:255 11:255 32 0] 2 [1 2] [0 2 0 0->16] [0 0 0 0->0]
r 29.076037065 _4_ RTR  --- 2 DSR 48 [0 ffffffff 1b 800] ------- [9:255 11:255 32 0] 2 [1 2] [0 2 0 0->16] [0 0 0 0->0]
r 29.076037077 _0_ RTR  --- 2 DSR 48 [0 ffffffff 1b 800] ------- [9:255 11:255 32 0] 2 [1 2] [0 2 0 0->16] [0 0 0 0->0]
r 29.076037098 _46_ RTR  --- 2 DSR 48 [0 ffffffff 1b 800] ------- [9:255 11:255 32 0] 2 [1 2] [0 2 0 0->16] [0 0 0 0->0]
r 29.076037118 _39_ RTR  --- 2 DSR 48 [0 ffffffff 1b 800] ------- [9:255 11:255 32 0] 2 [1 2] [0 2 0 0->16] [0 0 0 0->0]
r 29.076037124 _18_ RTR  --- 2 DSR 48 [0 ffffffff 1b 800] ------- [9:255 11:255 32 0] 2 [1 2] [0 2 0 0->16] [0 0 0 0->0]
r 29.076037268 _7_ RTR  --- 2 DSR 48 [0 ffffffff 1b 800] ------- [9:255 11:255 32 0] 2 [1 2] [0 2 0 0->16] [0 0 0 0->0]
r 29.076037276 _38_ RTR  --- 2 DSR 48 [0 ffffffff 1b 800] ------- [9:255 11:255 32 0] 2 [1 2] [0 2 0 0->16] [0 0 0 0->0]
r 29.076037343 _37_ RTR  --- 2 DSR 48 [0 ffffffff 1b 800] ------- [9:255 11:255 32 0] 2 [1 2] [0 2 0 0->16] [0 0 0 0->0]
r 29.076037393 _22_ RTR  --- 2 DSR 48 [0 ffffffff 1b 800] ------- [9:255 11:255 32 0] 2 [1 2] [0 2 0 0->16] [0 0 0 0->0]
r 29.076037397 _3_ RTR  --- 2 DSR 48 [0 ffffffff 1b 800] ------- [9:255 11:255 32 0] 2 [1 2] [0 2 0 0->16] [0 0 0 0->0]
r 29.076037405 _29_ RTR  --- 2 DSR 48 [0 ffffffff 1b 800] ------- [9:255 11:255 32 0] 2 [1 2] [0 2 0 0->16] [0 0 0 0->0]
r 29.076037427 _6_ RTR  --- 2 DSR 48 [0 ffffffff 1b 800] ------- [9:255 11:255 32 0] 2 [1 2] [0 2 0 0->16] [0 0 0 0->0]
r 29.076037435 _48_ RTR  --- 2 DSR 48 [0 ffffffff 1b 800] ------- [9:255 11:255 32 0] 2 [1 2] [0 2 0 0->16] [0 0 0 0->0]
r 29.076037476 _49_ RTR  --- 2 DSR 48 [0 ffffffff 1b 800] ------- [9:255 11:255 32 0] 2 [1 2] [0 2 0 0->16] [0 0 0 0->0]
r 29.076037487 _34_ RTR  --- 2 DSR 48 [0 ffffffff 1b 800] ------- [9:255 11:255 32 0] 2 [1 2] [0 2 0 0->16] [0 0 0 0->0]
r 29.076037534 _21_ RTR  --- 2 DSR 48 [0 ffffffff 1b 800] ------- [9:255 11:255 32 0] 2 [1 2] [0 2 0 0->16] [0 0 0 0->0]
r 29.076037546 _16_ RTR  --- 2 DSR 48 [0 ffffffff 1b 800] ------- [9:255 11:255 32 0] 2 [1 2] [0 2 0 0->16] [0 0 0 0->0]
r 29.076037592 _43_ RTR  --- 2 DSR 48 [0 ffffffff 1b 800] ------- [9:255 11:255 32 0] 2 [1 2] [0 2 0 0->16] [0 0 0 0->0]
r 29.076037603 _10_ RTR  --- 2 DSR 48 [0 ffffffff 1b 800] ------- [9:255 11:255 32 0] 2 [1 2] [0 2 0 0->16] [0 0 0 0->0]
r 29.076037625 _9_ RTR  --- 2 DSR 48 [0 ffffffff 1b 800] ------- [9:255 11:255 32 0] 2 [1 2] [0 2 0 0->16] [0 0 0 0->0]
r 29.076037634 _13_ RTR  --- 2 DSR 48 [0 ffffffff 1b 800] ------- [9:255 11:255 32 0] 2 [1 2] [0 2 0 0->16] [0 0 0 0->0]
f 29.076081494 _5_ RTR  --- 2 DSR 68 [0 ffffffff 15 800] ------- [9:255 11:255 32 0] 3 [1 2] [0 2 0 0->16] [0 0 0 0->0]
f 29.076406511 _28_ RTR  --- 2 DSR 92 [0 ffffffff 19 800] ------- [9:255 11:255 32 0] 4 [1 2] [0 2 0 0->16] [0 0 0 0->0]
f 29.076663632 _32_ RTR  --- 2 DSR 68 [0 ffffffff 15 800] ------- [9:255 11:255 32 0] 3 [1 2] [0 2 0 0->16] [0 0 0 0->0]