M 0.0 nn:3 x:670 y:670 rp:tora
M 0.0 sc:../mobility/scene/scen-3-test cp:../mobility/scene/cbr-3-test seed:0.0
M 0.0 prop:Propagation/TwoRayGround ant:Antenna/OmniAntenna
s 1.000000000 _0_ RTR  --- 0 IMEP 24 [0 0 0 0] ------- [0:255 -1:255 1 0] [- - - 0x0004] 
s 1.100000000 _1_ RTR  --- 3 IMEP 32 [0 0 0 0] ------- [1:255 -1:255 1 0] [- H - 0x000c] 
s 1.200000000 _2_ RTR  --- 6 IMEP 24 [0 0 0 0] ------- [2:255 -1:255 1 0] [- - - 0x0004] 
s 1.332420283 _0_ RTR  --- 7 IMEP 32 [0 0 0 0] ------- [0:255 -1:255 1 0] [- H - 0x000c] 
s 2.100000000 _1_ RTR  --- 9 IMEP 32 [0 0 0 0] ------- [1:255 -1:255 1 0] [- H - 0x000c] 
s 2.200000000 _2_ RTR  --- 11 IMEP 24 [0 0 0 0] ------- [2:255 -1:255 1 0] [- - - 0x0004] 
s 3.000000000 _0_ RTR  --- 12 IMEP 32 [0 0 0 0] ------- [0:255 -1:255 1 0] [- H - 0x000c] 
s 3.100000000 _1_ RTR  --- 14 IMEP 32 [0 0 0 0] ------- [1:255 -1:255 1 0] [- H - 0x000c] 
s 3.200000000 _2_ RTR  --- 16 IMEP 24 [0 0 0 0] ------- [2:255 -1:255 1 0] [- - - 0x0004] 
s 4.000000000 _0_ RTR  --- 17 IMEP 32 [0 0 0 0] ------- [0:255 -1:255 1 0] [- H - 0x000c] 
s 4.100000000 _1_ RTR  --- 19 IMEP 32 [0 0 0 0] ------- [1:255 -1:255 1 0] [- H - 0x000c] 
s 4.200000000 _2_ RTR  --- 21 IMEP 24 [0 0 0 0] ------- [2:255 -1:255 1 0] [- - - 0x0004] 
s 5.000000000 _0_ RTR  --- 22 IMEP 32 [0 0 0 0] ------- [0:255 -1:255 1 0] [- H - 0x000c] 
s 5.100000000 _1_ RTR  --- 24 IMEP 32 [0 0 0 0] ------- [1:255 -1:255 1 0] [- H - 0x000c] 
s 5.200000000 _2_ RTR  --- 26 IMEP 24 [0 0 0 0] ------- [2:255 -1:255 1 0] [- - - 0x0004] 
s 6.000000000 _0_ RTR  --- 27 IMEP 32 [0 0 0 0] ------- [0:255 -1:255 1 0] [- H - 0x000c] 
s 6.100000000 _1_ RTR  --- 29 IMEP 32 [0 0 0 0] ------- [1:255 -1:255 1 0] [- H - 0x000c] 
s 6.200000000 _2_ RTR  --- 31 IMEP 24 [0 0 0 0] ------- [2:255 -1:255 1 0] [- - - 0x0004] 
s 7.000000000 _0_ RTR  --- 32 IMEP 32 [0 0 0 0] ------- [0:255 -1:255 1 0] [- H - 0x000c] 
s 7.100000000 _1_ RTR  --- 34 IMEP 32 [0 0 0 0] ------- [1:255 -1:255 1 0] [- H - 0x000c] 
s 7.200000000 _2_ RTR  --- 36 IMEP 24 [0 0 0 0] ------- [2:255 -1:255 1 0] [- - - 0x0004] 
s 8.000000000 _0_ RTR  --- 37 IMEP 32 [0 0 0 0] ------- [0:255 -1:255 1 0] [- H - 0x000c] 
s 8.100000000 _1_ RTR  --- 39 IMEP 32 [0 0 0 0] ------- [1:255 -1:255 1 0] [- H - 0x000c] 
s 8.200000000 _2_ RTR  --- 41 IMEP 24 [0 0 0 0] ------- [2:255 -1:255 1 0] [- - - 0x0004] 
s 9.000000000 _0_ RTR  --- 42 IMEP 32 [0 0 0 0] ------- [0:255 -1:255 1 0] [- H - 0x000c] 
s 9.100000000 _1_ RTR  --- 44 IMEP 32 [0 0 0 0] ------- [1:255 -1:255 1 0] [- H - 0x000c] 
s 9.200000000 _2_ RTR  --- 46 IMEP 24 [0 0 0 0] ------- [2:255 -1:255 1 0] [- - - 0x0004] 
s 10.000000000 _0_ RTR  --- 47 IMEP 32 [0 0 0 0] ------- [0:255 -1:255 1 0] [- H - 0x000c] 
s 10.100000000 _1_ RTR  --- 49 IMEP 32 [0 0 0 0] ------- [1:255 -1:255 1 0] [- H - 0x000c] 
s 10.200000000 _2_ RTR  --- 51 IMEP 24 [0 0 0 0] ------- [2:255 -1:255 1 0] [- - - 0x0004] 
s 11.000000000 _0_ RTR  --- 52 IMEP 32 [0 0 0 0] ------- [0:255 -1:255 1 0] [- H - 0x000c] 
s 11.100000000 _1_ RTR  --- 54 IMEP 32 [0 0 0 0] ------- [1:255 -1:255 1 0] [- H - 0x000c] 
s 11.200000000 _2_ RTR  --- 56 IMEP 24 [0 0 0 0] ------- [2:255 -1:255 1 0] [- - - 0x0004] 
s 12.000000000 _0_ RTR  --- 57 IMEP 32 [0 0 0 0] ------- [0:255 -1:255 1 0] [- H - 0x000c] 
s 12.100000000 _1_ RTR  --- 59 IMEP 32 [0 0 0 0] ------- [1:255 -1:255 1 0] [- H - 0x000c] 
s 12.200000000 _2_ RTR  --- 61 IMEP 24 [0 0 0 0] ------- [2:255 -1:255 1 0] [- - - 0x0004] 
s 13.000000000 _0_ RTR  --- 62 IMEP 32 [0 0 0 0] ------- [0:255 -1:255 1 0] [- H - 0x000c] 
s 13.100000000 _1_ RTR  --- 64 IMEP 32 [0 0 0 0] ------- [1:255 -1:255 1 0] [- H - 0x000c] 
s 13.200000000 _2_ RTR  --- 66 IMEP 24 [0 0 0 0] ------- [2:255 -1:255 1 0] [- - - 0x0004] 
s 14.000000000 _0_ RTR  --- 67 IMEP 32 [0 0 0 0] ------- [0:255 -1:255 1 0] [- H - 0x000c] 
s 14.100000000 _1_ RTR  --- 69 IMEP 32 [0 0 0 0] ------- [1:255 -1:255 1 0] [- H - 0x000c] 
s 14.200000000 _2_ RTR  --- 71 IMEP 24 [0 0 0 0] ------- [2:255 -1:255 1 0] [- - - 0x0004] 
s 15.000000000 _0_ RTR  --- 72 IMEP 32 [0 0 0 0] ------- [0:255 -1:255 1 0] [- H - 0x000c] 
s 15.100000000 _1_ RTR  --- 74 IMEP 32 [0 0 0 0] ------- [1:255 -1:255 1 0] [- H - 0x000c] 
s 15.200000000 _2_ RTR  --- 76 IMEP 24 [0 0 0 0] ------- [2:255 -1:255 1 0] [- - - 0x0004] 
s 16.000000000 _0_ RTR  --- 77 IMEP 32 [0 0 0 0] ------- [0:255 -1:255 1 0] [- H - 0x000c] 
s 16.100000000 _1_ RTR  --- 79 IMEP 32 [0 0 0 0] ------- [1:255 -1:255 1 0] [- H - 0x000c] 
s 16.200000000 _2_ RTR  --- 81 IMEP 24 [0 0 0 0] ------- [2:255 -1:255 1 0] [- - - 0x0004] 
s 17.000000000 _0_ RTR  --- 82 IMEP 32 [0 0 0 0] ------- [0:255 -1:255 1 0] [- H - 0x000c] 
s 17.100000000 _1_ RTR  --- 84 IMEP 32 [0 0 0 0] ------- [1:255 -1:255 1 0] [- H - 0x000c] 
s 17.200000000 _2_ RTR  --- 86 IMEP 24 [0 0 0 0] ------- [2:255 -1:255 1 0] [- - - 0x0004] 
s 18.000000000 _0_ RTR  --- 87 IMEP 32 [0 0 0 0] ------- [0:255 -1:255 1 0] [- H - 0x000c] 
s 18.100000000 _1_ RTR  --- 89 IMEP 32 [0 0 0 0] ------- [1:255 -1:255 1 0] [- H - 0x000c] 
s 18.200000000 _2_ RTR  --- 91 IMEP 24 [0 0 0 0] ------- [2:255 -1:255 1 0] [- - - 0x0004] 
s 19.000000000 _0_ RTR  --- 92 IMEP 32 [0 0 0 0] ------- [0:255 -1:255 1 0] [- H - 0x000c] 
s 19.100000000 _1_ RTR  --- 94 IMEP 32 [0 0 0 0] ------- [1:255 -1:255 1 0] [- H - 0x000c] 
s 19.200000000 _2_ RTR  --- 96 IMEP 24 [0 0 0 0] ------- [2:255 -1:255 1 0] [- - - 0x0004] 
s 20.000000000 _0_ RTR  --- 97 IMEP 32 [0 0 0 0] ------- [0:255 -1:255 1 0] [- H - 0x000c] 
s 20.100000000 _1_ RTR  --- 99 IMEP 32 [0 0 0 0] ------- [1:255 -1:255 1 0] [- H - 0x000c] 
s 20.200000000 _2_ RTR  --- 101 IMEP 24 [0 0 0 0] ------- [2:255 -1:255 1 0] [- - - 0x0004] 
s 21.000000000 _0_ RTR  --- 102 IMEP 32 [0 0 0 0] ------- [0:255 -1:255 1 0] [- H - 0x000c] 
s 21.100000000 _1_ RTR  --- 104 IMEP 32 [0 0 0 0] ------- [1:255 -1:255 1 0] [- H - 0x000c] 
s 21.200000000 _2_ RTR  --- 106 IMEP 24 [0 0 0 0] ------- [2:255 -1:255 1 0] [- - - 0x0004] 
s 22.000000000 _0_ RTR  --- 107 IMEP 32 [0 0 0 0] ------- [0:255 -1:255 1 0] [- H - 0x000c] 
s 22.100000000 _1_ RTR  --- 109 IMEP 32 [0 0 0 0] ------- [1:255 -1:255 1 0] [- H - 0x000c] 
s 22.200000000 _2_ RTR  --- 111 IMEP 24 [0 0 0 0] ------- [2:255 -1:255 1 0] [- - - 0x0004] 
s 23.000000000 _0_ RTR  --- 112 IMEP 32 [0 0 0 0] ------- [0:255 -1:255 1 0] [- H - 0x000c] 
s 23.100000000 _1_ RTR  --- 114 IMEP 32 [0 0 0 0] ------- [1:255 -1:255 1 0] [- H - 0x000c] 
s 23.200000000 _2_ RTR  --- 116 IMEP 24 [0 0 0 0] ------- [2:255 -1:255 1 0] [- - - 0x0004] 
s 24.000000000 _0_ RTR  --- 117 IMEP 32 [0 0 0 0] ------- [0:255 -1:255 1 0] [- H - 0x000c] 
s 24.100000000 _1_ RTR  --- 119 IMEP 32 [0 0 0 0] ------- [1:255 -1:255 1 0] [- H - 0x000c] 
s 24.200000000 _2_ RTR  --- 121 IMEP 24 [0 0 0 0] ------- [2:255 -1:255 1 0] [- - - 0x0004] 
s 25.000000000 _0_ RTR  --- 122 IMEP 32 [0 0 0 0] ------- [0:255 -1:255 1 0] [- H - 0x000c] 
s 25.100000000 _1_ RTR  --- 124 IMEP 32 [0 0 0 0] ------- [1:255 -1:255 1 0] [- H - 0x000c] 
s 25.200000000 _2_ RTR  --- 126 IMEP 24 [0 0 0 0] ------- [2:255 -1:255 1 0] [- - - 0x0004] 
s 26.000000000 _0_ RTR  --- 127 IMEP 32 [0 0 0 0] ------- [0:255 -1:255 1 0] [- H - 0x000c] 
s 26.100000000 _1_ RTR  --- 129 IMEP 32 [0 0 0 0] ------- [1:255 -1:255 1 0] [- H - 0x000c] 
s 26.200000000 _2_ RTR  --- 131 IMEP 24 [0 0 0 0] ------- [2:255 -1:255 1 0] [- - - 0x0004] 
s 27.000000000 _0_ RTR  --- 132 IMEP 32 [0 0 0 0] ------- [0:255 -1:255 1 0] [- H - 0x000c] 
s 27.100000000 _1_ RTR  --- 134 IMEP 32 [0 0 0 0] ------- [1:255 -1:255 1 0] [- H - 0x000c] 
s 27.200000000 _2_ RTR  --- 136 IMEP 24 [0 0 0 0] ------- [2:255 -1:255 1 0] [- - - 0x0004] 
s 28.000000000 _0_ RTR  --- 137 IMEP 32 [0 0 0 0] ------- [0:255 -1:255 1 0] [- H - 0x000c] 
s 28.100000000 _1_ RTR  --- 139 IMEP 32 [0 0 0 0] ------- [1:255 -1:255 1 0] [- H - 0x000c] 
s 28.200000000 _2_ RTR  --- 141 IMEP 24 [0 0 0 0] ------- [2:255 -1:255 1 0] [- - - 0x0004] 
s 29.000000000 _0_ RTR  --- 142 IMEP 32 [0 0 0 0] ------- [0:255 -1:255 1 0] [- H - 0x000c] 
s 29.100000000 _1_ RTR  --- 144 IMEP 32 [0 0 0 0] ------- [1:255 -1:255 1 0] [- H - 0x000c] 
s 29.200000000 _2_ RTR  --- 146 IMEP 24 [0 0 0 0] ------- [2:255 -1:255 1 0] [- - - 0x0004] 
s 30.000000000 _0_ RTR  --- 147 IMEP 32 [0 0 0 0] ------- [0:255 -1:255 1 0] [- H - 0x000c] 
s 30.100000000 _1_ RTR  --- 149 IMEP 32 [0 0 0 0] ------- [1:255 -1:255 1 0] [- H - 0x000c] 
s 30.200000000 _2_ RTR  --- 151 IMEP 24 [0 0 0 0] ------- [2:255 -1:255 1 0] [- - - 0x0004] 
s 31.000000000 _0_ RTR  --- 152 IMEP 32 [0 0 0 0] ------- [0:255 -1:255 1 0] [- H - 0x000c] 
s 31.100000000 _1_ RTR  --- 154 IMEP 32 [0 0 0 0] ------- [1:255 -1:255 1 0] [- H - 0x000c] 
s 31.200000000 _2_ RTR  --- 156 IMEP 24 [0 0 0 0] ------- [2:255 -1:255 1 0] [- - - 0x0004] 
s 32.000000000 _0_ RTR  --- 157 IMEP 32 [0 0 0 0] ------- [0:255 -1:255 1 0] [- H - 0x000c] 
s 32.100000000 _1_ RTR  --- 159 IMEP 32 [0 0 0 0] ------- [1:255 -1:255 1 0] [- H - 0x000c] 
s 32.200000000 _2_ RTR  --- 161 IMEP 24 [0 0 0 0] ------- [2:255 -1:255 1 0] [- - - 0x0004] 
M 33.00000 0 (83.36, 239.44, 0.00), (89.66, 283.49), 19.15
s 33.000000000 _0_ RTR  --- 162 IMEP 32 [0 0 0 0] ------- [0:255 -1:255 1 0] [- H - 0x000c] 
s 33.100000000 _1_ RTR  --- 164 IMEP 32 [0 0 0 0] ------- [1:255 -1:255 1 0] [- H - 0x000c] 
s 33.200000000 _2_ RTR  --- 166 IMEP 24 [0 0 0 0] ------- [2:255 -1:255 1 0] [- - - 0x0004] 
s 34.000000000 _0_ RTR  --- 167 IMEP 32 [0 0 0 0] ------- [0:255 -1:255 1 0] [- H - 0x000c] 
s 34.100000000 _1_ RTR  --- 169 IMEP 32 [0 0 0 0] ------- [1:255 -1:255 1 0] [- H - 0x000c] 
s 34.200000000 _2_ RTR  --- 171 IMEP 24 [0 0 0 0] ------- [2:255 -1:255 1 0] [- - - 0x0004] 
s 35.000000000 _0_ RTR  --- 172 IMEP 32 [0 0 0 0] ------- [0:255 -1:255 1 0] [- H - 0x000c] 
s 35.100000000 _1_ RTR  --- 174 IMEP 32 [0 0 0 0] ------- [1:255 -1:255 1 0] [- H - 0x000c] 
s 35.200000000 _2_ RTR  --- 176 IMEP 24 [0 0 0 0] ------- [2:255 -1:255 1 0] [- - - 0x0004] 
s 36.000000000 _0_ RTR  --- 177 IMEP 32 [0 0 0 0] ------- [0:255 -1:255 1 0] [- H - 0x000c] 
s 36.100000000 _1_ RTR  --- 179 IMEP 32 [0 0 0 0] ------- [1:255 -1:255 1 0] [- H - 0x000c] 
s 36.200000000 _2_ RTR  --- 181 IMEP 24 [0 0 0 0] ------- [2:255 -1:255 1 0] [- - - 0x0004] 
s 37.000000000 _0_ RTR  --- 182 IMEP 32 [0 0 0 0] ------- [0:255 -1:255 1 0] [- H - 0x000c] 
s 37.100000000 _1_ RTR  --- 184 IMEP 32 [0 0 0 0] ------- [1:255 -1:255 1 0] [- H - 0x000c] 
s 37.200000000 _2_ RTR  --- 186 IMEP 24 [0 0 0 0] ------- [2:255 -1:255 1 0] [- - - 0x0004] 
s 38.000000000 _0_ RTR  --- 187 IMEP 32 [0 0 0 0] ------- [0:255 -1:255 1 0] [- H - 0x000c] 
s 38.100000000 _1_ RTR  --- 189 IMEP 32 [0 0 0 0] ------- [1:255 -1:255 1 0] [- H - 0x000c] 
s 38.200000000 _2_ RTR  --- 191 IMEP 24 [0 0 0 0] ------- [2:255 -1:255 1 0] [- - - 0x0004] 
s 39.000000000 _0_ RTR  --- 192 IMEP 32 [0 0 0 0] ------- [0:255 -1:255 1 0] [- H - 0x000c] 
s 39.100000000 _1_ RTR  --- 194 IMEP 32 [0 0 0 0] ------- [1:255 -1:255 1 0] [- H - 0x000c] 
s 39.200000000 _2_ RTR  --- 196 IMEP 24 [0 0 0 0] ------- [2:255 -1:255 1 0] [- - - 0x0004] 
s 40.000000000 _0_ RTR  --- 197 IMEP 32 [0 0 0 0] ------- [0:255 -1:255 1 0] [- H - 0x000c] 
s 40.100000000 _1_ RTR  --- 199 IMEP 32 [0 0 0 0] ------- [1:255 -1:255 1 0] [- H - 0x000c] 
s 40.200000000 _2_ RTR  --- 201 IMEP 24 [0 0 0 0] ------- [2:255 -1:255 1 0] [- - - 0x0004] 
s 41.000000000 _0_ RTR  --- 202 IMEP 32 [0 0 0 0] ------- [0:255 -1:255 1 0] [- H - 0x000c] 
s 41.100000000 _1_ RTR  --- 204 IMEP 32 [0 0 0 0] ------- [1:255 -1:255 1 0] [- H - 0x000c] 
s 41.200000000 _2_ RTR  --- 206 IMEP 24 [0 0 0 0] ------- [2:255 -1:255 1 0] [- - - 0x0004] 
s 42.000000000 _0_ RTR  --- 207 IMEP 32 [0 0 0 0] ------- [0:255 -1:255 1 0] [- H - 0x000c] 
s 42.100000000 _1_ RTR  --- 209 IMEP 32 [0 0 0 0] ------- [1:255 -1:255 1 0] [- H - 0x000c] 
s 42.200000000 _2_ RTR  --- 211 IMEP 24 [0 0 0 0] ------- [2:255 -1:255 1 0] [- - - 0x0004] 
s 43.000000000 _0_ RTR  --- 212 IMEP 32 [0 0 0 0] ------- [0:255 -1:255 1 0] [- H - 0x000c] 
s 43.100000000 _1_ RTR  --- 214 IMEP 32 [0 0 0 0] ------- [1:255 -1:255 1 0] [- H - 0x000c] 
s 43.200000000 _2_ RTR  --- 216 IMEP 24 [0 0 0 0] ------- [2:255 -1:255 1 0] [- - - 0x0004] 
s 44.000000000 _0_ RTR  --- 217 IMEP 32 [0 0 0 0] ------- [0:255 -1:255 1 0] [- H - 0x000c] 
s 44.100000000 _1_ RTR  --- 219 IMEP 32 [0 0 0 0] ------- [1:255 -1:255 1 0] [- H - 0x000c] 
s 44.200000000 _2_ RTR  --- 221 IMEP 24 [0 0 0 0] ------- [2:255 -1:255 1 0] [- - - 0x0004] 
s 45.000000000 _0_ RTR  --- 222 IMEP 32 [0 0 0 0] ------- [0:255 -1:255 1 0] [- H - 0x000c] 
s 45.100000000 _1_ RTR  --- 224 IMEP 32 [0 0 0 0] ------- [1:255 -1:255 1 0] [- H - 0x000c] 
s 45.200000000 _2_ RTR  --- 226 IMEP 24 [0 0 0 0] ------- [2:255 -1:255 1 0] [- - - 0x0004] 
s 46.000000000 _0_ RTR  --- 227 IMEP 32 [0 0 0 0] ------- [0:255 -1:255 1 0] [- H - 0x000c] 
s 46.100000000 _1_ RTR  --- 229 IMEP 32 [0 0 0 0] ------- [1:255 -1:255 1 0] [- H - 0x000c] 
s 46.200000000 _2_ RTR  --- 231 IMEP 24 [0 0 0 0] ------- [2:255 -1:255 1 0] [- - - 0x0004] 
s 47.000000000 _0_ RTR  --- 232 IMEP 32 [0 0 0 0] ------- [0:255 -1:255 1 0] [- H - 0x000c] 
s 47.100000000 _1_ RTR  --- 234 IMEP 32 [0 0 0 0] ------- [1:255 -1:255 1 0] [- H - 0x000c] 
s 47.200000000 _2_ RTR  --- 236 IMEP 24 [0 0 0 0] ------- [2:255 -1:255 1 0] [- - - 0x0004] 
s 48.000000000 _0_ RTR  --- 237 IMEP 32 [0 0 0 0] ------- [0:255 -1:255 1 0] [- H - 0x000c] 
s 48.100000000 _1_ RTR  --- 239 IMEP 32 [0 0 0 0] ------- [1:255 -1:255 1 0] [- H - 0x000c] 
s 48.200000000 _2_ RTR  --- 241 IMEP 24 [0 0 0 0] ------- [2:255 -1:255 1 0] [- - - 0x0004] 
s 49.000000000 _0_ RTR  --- 242 IMEP 32 [0 0 0 0] ------- [0:255 -1:255 1 0] [- H - 0x000c] 
s 49.100000000 _1_ RTR  --- 244 IMEP 32 [0 0 0 0] ------- [1:255 -1:255 1 0] [- H - 0x000c] 
s 49.200000000 _2_ RTR  --- 246 IMEP 24 [0 0 0 0] ------- [2:255 -1:255 1 0] [- - - 0x0004] 
M 50.00000 2 (591.26, 199.37, 0.00), (369.46, 170.52), 3.37
s 50.000000000 _0_ RTR  --- 247 IMEP 32 [0 0 0 0] ------- [0:255 -1:255 1 0] [- H - 0x000c] 
s 50.100000000 _1_ RTR  --- 249 IMEP 32 [0 0 0 0] ------- [1:255 -1:255 1 0] [- H - 0x000c] 
s 50.200000000 _2_ RTR  --- 251 IMEP 24 [0 0 0 0] ------- [2:255 -1:255 1 0] [- - - 0x0004] 
M 51.00000 1 (257.05, 345.36, 0.00), (221.83, 80.86), 14.91
s 51.000000000 _0_ RTR  --- 252 IMEP 32 [0 0 0 0] ------- [0:255 -1:255 1 0] [- H - 0x000c] 
s 51.100000000 _1_ RTR  --- 254 IMEP 32 [0 0 0 0] ------- [1:255 -1:255 1 0] [- H - 0x000c] 
s 51.200000000 _2_ RTR  --- 256 IMEP 24 [0 0 0 0] ------- [2:255 -1:255 1 0] [- - - 0x0004] 
s 52.000000000 _0_ RTR  --- 257 IMEP 32 [0 0 0 0] ------- [0:255 -1:255 1 0] [- H - 0x000c] 
s 52.100000000 _1_ RTR  --- 259 IMEP 32 [0 0 0 0] ------- [1:255 -1:255 1 0] [- H - 0x000c] 
s 52.200000000 _2_ RTR  --- 261 IMEP 24 [0 0 0 0] ------- [2:255 -1:255 1 0] [- - - 0x0004] 
s 53.000000000 _0_ RTR  --- 262 IMEP 32 [0 0 0 0] ------- [0:255 -1:255 1 0] [- H - 0x000c] 
s 53.100000000 _1_ RTR  --- 264 IMEP 32 [0 0 0 0] ------- [1:255 -1:255 1 0] [- H - 0x000c] 
s 53.200000000 _2_ RTR  --- 266 IMEP 24 [0 0 0 0] ------- [2:255 -1:255 1 0] [- - - 0x0004] 
s 54.000000000 _0_ RTR  --- 267 IMEP 32 [0 0 0 0] ------- [0:255 -1:255 1 0] [- H - 0x000c] 
s 54.100000000 _1_ RTR  --- 269 IMEP 32 [0 0 0 0] ------- [1:255 -1:255 1 0] [- H - 0x000c] 
s 54.200000000 _2_ RTR  --- 271 IMEP 24 [0 0 0 0] ------- [2:255 -1:255 1 0] [- - - 0x0004] 
s 55.000000000 _0_ RTR  --- 272 IMEP 32 [0 0 0 0] ------- [0:255 -1:255 1 0] [- H - 0x000c] 
s 55.100000000 _1_ RTR  --- 274 IMEP 32 [0 0 0 0] ------- [1:255 -1:255 1 0] [- H - 0x000c] 
s 55.200000000 _2_ RTR  --- 276 IMEP 24 [0 0 0 0] ------- [2:255 -1:255 1 0] [- - - 0x0004] 
s 56.000000000 _0_ RTR  --- 277 IMEP 32 [0 0 0 0] ------- [0:255 -1:255 1 0] [- H - 0x000c] 
s 56.100000000 _1_ RTR  --- 279 IMEP 32 [0 0 0 0] ------- [1:255 -1:255 1 0] [- H - 0x000c] 
s 56.200000000 _2_ RTR  --- 281 IMEP 24 [0 0 0 0] ------- [2:255 -1:255 1 0] [- - - 0x0004] 
s 57.000000000 _0_ RTR  --- 282 IMEP 32 [0 0 0 0] ------- [0:255 -1:255 1 0] [- H - 0x000c] 
s 57.100000000 _1_ RTR  --- 284 IMEP 32 [0 0 0 0] ------- [1:255 -1:255 1 0] [- H - 0x000c] 
s 57.200000000 _2_ RTR  --- 286 IMEP 24 [0 0 0 0] ------- [2:255 -1:255 1 0] [- - - 0x0004] 
s 58.000000000 _0_ RTR  --- 287 IMEP 32 [0 0 0 0] ------- [0:255 -1:255 1 0] [- H - 0x000c] 
s 58.100000000 _1_ RTR  --- 289 IMEP 32 [0 0 0 0] ------- [1:255 -1:255 1 0] [- H - 0x000c] 
s 58.200000000 _2_ RTR  --- 291 IMEP 24 [0 0 0 0] ------- [2:255 -1:255 1 0] [- - - 0x0004] 
s 59.000000000 _0_ RTR  --- 292 IMEP 32 [0 0 0 0] ------- [0:255 -1:255 1 0] [- H - 0x000c] 
s 59.100000000 _1_ RTR  --- 294 IMEP 32 [0 0 0 0] ------- [1:255 -1:255 1 0] [- H - 0x000c] 
s 59.200000000 _2_ RTR  --- 296 IMEP 24 [0 0 0 0] ------- [2:255 -1:255 1 0] [- - - 0x0004] 
s 60.000000000 _0_ RTR  --- 297 IMEP 32 [0 0 0 0] ------- [0:255 -1:255 1 0] [- H - 0x000c] 
s 60.100000000 _1_ RTR  --- 299 IMEP 32 [0 0 0 0] ------- [1:255 -1:255 1 0] [- H - 0x000c] 
s 60.200000000 _2_ RTR  --- 301 IMEP 24 [0 0 0 0] ------- [2:255 -1:255 1 0] [- - - 0x0004] 
s 61.000000000 _0_ RTR  --- 302 IMEP 32 [0 0 0 0] ------- [0:255 -1:255 1 0] [- H - 0x000c] 
s 61.100000000 _1_ RTR  --- 304 IMEP 32 [0 0 0 0] ------- [1:255 -1:255 1 0] [- H - 0x000c] 
s 61.200000000 _2_ RTR  --- 306 IMEP 24 [0 0 0 0] ------- [2:255 -1:255 1 0] [- - - 0x0004] 
s 62.000000000 _0_ RTR  --- 307 IMEP 32 [0 0 0 0] ------- [0:255 -1:255 1 0] [- H - 0x000c] 
s 62.100000000 _1_ RTR  --- 309 IMEP 32 [0 0 0 0] ------- [1:255 -1:255 1 0] [- H - 0x000c] 
s 62.200000000 _2_ RTR  --- 311 IMEP 24 [0 0 0 0] ------- [2:255 -1:255 1 0] [- - - 0x0004] 
s 63.000000000 _0_ RTR  --- 312 IMEP 32 [0 0 0 0] ------- [0:255 -1:255 1 0] [- H - 0x000c] 
s 63.100000000 _1_ RTR  --- 314 IMEP 32 [0 0 0 0] ------- [1:255 -1:255 1 0] [- H - 0x000c] 
s 63.200000000 _2_ RTR  --- 316 IMEP 24 [0 0 0 0] ------- [2:255 -1:255 1 0] [- - - 0x0004] 
s 64.000000000 _0_ RTR  --- 317 IMEP 32 [0 0 0 0] ------- [0:255 -1:255 1 0] [- H - 0x000c] 
s 64.100000000 _1_ RTR  --- 319 IMEP 32 [0 0 0 0] ------- [1:255 -1:255 1 0] [- H - 0x000c] 
s 64.200000000 _2_ RTR  --- 321 IMEP 24 [0 0 0 0] ------- [2:255 -1:255 1 0] [- - - 0x0004] 
s 65.000000000 _0_ RTR  --- 322 IMEP 32 [0 0 0 0] ------- [0:255 -1:255 1 0] [- H - 0x000c] 
s 65.100000000 _1_ RTR  --- 324 IMEP 32 [0 0 0 0] ------- [1:255 -1:255 1 0] [- H - 0x000c] 
s 65.200000000 _2_ RTR  --- 326 IMEP 24 [0 0 0 0] ------- [2:255 -1:255 1 0] [- - - 0x0004] 
s 66.000000000 _0_ RTR  --- 327 IMEP 32 [0 0 0 0] ------- [0:255 -1:255 1 0] [- H - 0x000c] 
s 66.100000000 _1_ RTR  --- 329 IMEP 32 [0 0 0 0] ------- [1:255 -1:255 1 0] [- H - 0x000c] 
s 66.200000000 _2_ RTR  --- 331 IMEP 24 [0 0 0 0] ------- [2:255 -1:255 1 0] [- - - 0x0004] 
s 67.000000000 _0_ RTR  --- 332 IMEP 32 [0 0 0 0] ------- [0:255 -1:255 1 0] [- H - 0x000c] 
s 67.100000000 _1_ RTR  --- 334 IMEP 32 [0 0 0 0] ------- [1:255 -1:255 1 0] [- H - 0x000c] 
s 67.200000000 _2_ RTR  --- 336 IMEP 24 [0 0 0 0] ------- [2:255 -1:255 1 0] [- - - 0x0004] 
s 68.000000000 _0_ RTR  --- 337 IMEP 32 [0 0 0 0] ------- [0:255 -1:255 1 0] [- H - 0x000c] 
s 68.100000000 _1_ RTR  --- 339 IMEP 32 [0 0 0 0] ------- [1:255 -1:255 1 0] [- H - 0x000c] 
s 68.200000000 _2_ RTR  --- 341 IMEP 24 [0 0 0 0] ------- [2:255 -1:255 1 0] [- - - 0x0004] 
s 69.000000000 _0_ RTR  --- 342 IMEP 32 [0 0 0 0] ------- [0:255 -1:255 1 0] [- H - 0x000c] 
s 69.100000000 _1_ RTR  --- 344 IMEP 32 [0 0 0 0] ------- [1:255 -1:255 1 0] [- H - 0x000c] 
s 69.200000000 _2_ RTR  --- 346 IMEP 24 [0 0 0 0] ------- [2:255 -1:255 1 0] [- - - 0x0004] 
s 70.000000000 _0_ RTR  --- 347 IMEP 32 [0 0 0 0] ------- [0:255 -1:255 1 0] [- H - 0x000c] 
s 70.100000000 _1_ RTR  --- 349 IMEP 32 [0 0 0 0] ------- [1:255 -1:255 1 0] [- H - 0x000c] 
s 70.200000000 _2_ RTR  --- 351 IMEP 24 [0 0 0 0] ------- [2:255 -1:255 1 0] [- - - 0x0004] 
s 71.000000000 _0_ RTR  --- 352 IMEP 32 [0 0 0 0] ------- [0:255 -1:255 1 0] [- H - 0x000c] 
s 71.100000000 _1_ RTR  --- 354 IMEP 32 [0 0 0 0] ------- [1:255 -1:255 1 0] [- H - 0x000c] 
s 71.200000000 _2_ RTR  --- 356 IMEP 24 [0 0 0 0] ------- [2:255 -1:255 1 0] [- - - 0x0004] 
s 72.000000000 _0_ RTR  --- 357 IMEP 32 [0 0 0 0] ------- [0:255 -1:255 1 0] [- H - 0x000c] 
s 72.100000000 _1_ RTR  --- 359 IMEP 32 [0 0 0 0] ------- [1:255 -1:255 1 0] [- H - 0x000c] 
s 72.200000000 _2_ RTR  --- 361 IMEP 24 [0 0 0 0] ------- [2:255 -1:255 1 0] [- - - 0x0004] 
s 73.000000000 _0_ RTR  --- 362 IMEP 32 [0 0 0 0] ------- [0:255 -1:255 1 0] [- H - 0x000c] 
s 73.100000000 _1_ RTR  --- 364 IMEP 32 [0 0 0 0] ------- [1:255 -1:255 1 0] [- H - 0x000c] 
s 73.200000000 _2_ RTR  --- 366 IMEP 24 [0 0 0 0] ------- [2:255 -1:255 1 0] [- - - 0x0004] 
s 74.000000000 _0_ RTR  --- 367 IMEP 32 [0 0 0 0] ------- [0:255 -1:255 1 0] [- H - 0x000c] 
s 74.100000000 _1_ RTR  --- 369 IMEP 32 [0 0 0 0] ------- [1:255 -1:255 1 0] [- H - 0x000c] 
s 74.200000000 _2_ RTR  --- 371 IMEP 24 [0 0 0 0] ------- [2:255 -1:255 1 0] [- - - 0x0004] 
s 75.000000000 _0_ RTR  --- 372 IMEP 32 [0 0 0 0] ------- [0:255 -1:255 1 0] [- H - 0x000c] 
s 75.100000000 _1_ RTR  --- 374 IMEP 32 [0 0 0 0] ------- [1:255 -1:255 1 0] [- H - 0x000c] 
s 75.200000000 _2_ RTR  --- 376 IMEP 24 [0 0 0 0] ------- [2:255 -1:255 1 0] [- - - 0x0004] 
s 76.000000000 _0_ RTR  --- 377 IMEP 32 [0 0 0 0] ------- [0:255 -1:255 1 0] [- H - 0x000c] 
s 76.100000000 _1_ RTR  --- 379 IMEP 32 [0 0 0 0] ------- [1:255 -1:255 1 0] [- H - 0x000c] 
s 76.200000000 _2_ RTR  --- 381 IMEP 24 [0 0 0 0] ------- [2:255 -1:255 1 0] [- - - 0x0004] 
s 77.000000000 _0_ RTR  --- 382 IMEP 32 [0 0 0 0] ------- [0:255 -1:255 1 0] [- H - 0x000c] 
s 77.100000000 _1_ RTR  --- 384 IMEP 32 [0 0 0 0] ------- [1:255 -1:255 1 0] [- H - 0x000c] 
s 77.200000000 _2_ RTR  --- 386 IMEP 24 [0 0 0 0] ------- [2:255 -1:255 1 0] [- - - 0x0004] 
s 78.000000000 _0_ RTR  --- 387 IMEP 32 [0 0 0 0] ------- [0:255 -1:255 1 0] [- H - 0x000c] 
s 78.100000000 _1_ RTR  --- 389 IMEP 32 [0 0 0 0] ------- [1:255 -1:255 1 0] [- H - 0x000c] 
s 78.200000000 _2_ RTR  --- 391 IMEP 24 [0 0 0 0] ------- [2:255 -1:255 1 0] [- - - 0x0004] 
s 79.000000000 _0_ RTR  --- 392 IMEP 32 [0 0 0 0] ------- [0:255 -1:255 1 0] [- H - 0x000c] 
s 79.100000000 _1_ RTR  --- 394 IMEP 32 [0 0 0 0] ------- [1:255 -1:255 1 0] [- H - 0x000c] 
s 79.200000000 _2_ RTR  --- 396 IMEP 24 [0 0 0 0] ------- [2:255 -1:255 1 0] [- - - 0x0004] 
s 80.000000000 _0_ RTR  --- 397 IMEP 32 [0 0 0 0] ------- [0:255 -1:255 1 0] [- H - 0x000c] 
s 80.100000000 _1_ RTR  --- 399 IMEP 32 [0 0 0 0] ------- [1:255 -1:255 1 0] [- H - 0x000c] 
s 80.200000000 _2_ RTR  --- 401 IMEP 24 [0 0 0 0] ------- [2:255 -1:255 1 0] [- - - 0x0004] 
s 81.000000000 _0_ RTR  --- 402 IMEP 32 [0 0 0 0] ------- [0:255 -1:255 1 0] [- H - 0x000c] 
s 81.100000000 _1_ RTR  --- 404 IMEP 32 [0 0 0 0] ------- [1:255 -1:255 1 0] [- H - 0x000c] 
s 81.200000000 _2_ RTR  --- 406 IMEP 24 [0 0 0 0] ------- [2:255 -1:255 1 0] [- - - 0x0004] 
s 82.000000000 _0_ RTR  --- 407 IMEP 32 [0 0 0 0] ------- [0:255 -1:255 1 0] [- H - 0x000c] 
s 82.100000000 _1_ RTR  --- 409 IMEP 32 [0 0 0 0] ------- [1:255 -1:255 1 0] [- H - 0x000c] 
s 82.200000000 _2_ RTR  --- 411 IMEP 24 [0 0 0 0] ------- [2:255 -1:255 1 0] [- - - 0x0004] 
s 83.000000000 _0_ RTR  --- 412 IMEP 32 [0 0 0 0] ------- [0:255 -1:255 1 0] [- H - 0x000c] 
s 83.100000000 _1_ RTR  --- 414 IMEP 32 [0 0 0 0] ------- [1:255 -1:255 1 0] [- H - 0x000c] 
s 83.200000000 _2_ RTR  --- 416 IMEP 24 [0 0 0 0] ------- [2:255 -1:255 1 0] [- - - 0x0004] 
s 84.000000000 _0_ RTR  --- 417 IMEP 32 [0 0 0 0] ------- [0:255 -1:255 1 0] [- H - 0x000c] 
s 84.100000000 _1_ RTR  --- 419 IMEP 32 [0 0 0 0] ------- [1:255 -1:255 1 0] [- H - 0x000c] 
s 84.200000000 _2_ RTR  --- 421 IMEP 24 [0 0 0 0] ------- [2:255 -1:255 1 0] [- - - 0x0004] 
s 85.000000000 _0_ RTR  --- 422 IMEP 32 [0 0 0 0] ------- [0:255 -1:255 1 0] [- H - 0x000c] 
s 85.100000000 _1_ RTR  --- 424 IMEP 32 [0 0 0 0] ------- [1:255 -1:255 1 0] [- H - 0x000c] 
s 85.200000000 _2_ RTR  --- 426 IMEP 24 [0 0 0 0] ------- [2:255 -1:255 1 0] [- - - 0x0004] 
s 86.000000000 _0_ RTR  --- 427 IMEP 32 [0 0 0 0] ------- [0:255 -1:255 1 0] [- H - 0x000c] 
s 86.100000000 _1_ RTR  --- 429 IMEP 32 [0 0 0 0] ------- [1:255 -1:255 1 0] [- H - 0x000c] 
s 86.200000000 _2_ RTR  --- 431 IMEP 24 [0 0 0 0] ------- [2:255 -1:255 1 0] [- - - 0x0004] 
s 87.000000000 _0_ RTR  --- 432 IMEP 32 [0 0 0 0] ------- [0:255 -1:255 1 0] [- H - 0x000c] 
s 87.100000000 _1_ RTR  --- 434 IMEP 32 [0 0 0 0] ------- [1:255 -1:255 1 0] [- H - 0x000c] 
s 87.200000000 _2_ RTR  --- 436 IMEP 24 [0 0 0 0] ------- [2:255 -1:255 1 0] [- - - 0x0004] 
s 88.000000000 _0_ RTR  --- 437 IMEP 32 [0 0 0 0] ------- [0:255 -1:255 1 0] [- H - 0x000c] 
s 88.100000000 _1_ RTR  --- 439 IMEP 32 [0 0 0 0] ------- [1:255 -1:255 1 0] [- H - 0x000c] 
s 88.200000000 _2_ RTR  --- 441 IMEP 24 [0 0 0 0] ------- [2:255 -1:255 1 0] [- - - 0x0004] 
s 89.000000000 _0_ RTR  --- 442 IMEP 32 [0 0 0 0] ------- [0:255 -1:255 1 0] [- H - 0x000c] 
s 89.100000000 _1_ RTR  --- 444 IMEP 32 [0 0 0 0] ------- [1:255 -1:255 1 0] [- H - 0x000c] 
s 89.200000000 _2_ RTR  --- 446 IMEP 24 [0 0 0 0] ------- [2:255 -1:255 1 0] [- - - 0x0004] 
s 90.000000000 _0_ RTR  --- 447 IMEP 32 [0 0 0 0] ------- [0:255 -1:255 1 0] [- H - 0x000c] 
s 90.100000000 _1_ RTR  --- 449 IMEP 32 [0 0 0 0] ------- [1:255 -1:255 1 0] [- H - 0x000c] 
s 90.200000000 _2_ RTR  --- 451 IMEP 24 [0 0 0 0] ------- [2:255 -1:255 1 0] [- - - 0x0004] 
s 91.000000000 _0_ RTR  --- 452 IMEP 32 [0 0 0 0] ------- [0:255 -1:255 1 0] [- H - 0x000c] 
s 91.100000000 _1_ RTR  --- 454 IMEP 32 [0 0 0 0] ------- [1:255 -1:255 1 0] [- H - 0x000c] 
s 91.200000000 _2_ RTR  --- 456 IMEP 24 [0 0 0 0] ------- [2:255 -1:255 1 0] [- - - 0x0004] 
s 92.000000000 _0_ RTR  --- 457 IMEP 32 [0 0 0 0] ------- [0:255 -1:255 1 0] [- H - 0x000c] 
s 92.100000000 _1_ RTR  --- 459 IMEP 32 [0 0 0 0] ------- [1:255 -1:255 1 0] [- H - 0x000c] 
s 92.200000000 _2_ RTR  --- 462 IMEP 32 [0 0 0 0] ------- [2:255 -1:255 1 0] [- H - 0x000c] 
s 92.412061447 _1_ RTR  --- 465 IMEP 36 [0 0 0 0] ------- [1:255 -1:255 1 0] [- H - 0x0010] 
s 93.000000000 _0_ RTR  --- 466 IMEP 32 [0 0 0 0] ------- [0:255 -1:255 1 0] [- H - 0x000c] 
s 93.200000000 _2_ RTR  --- 470 IMEP 32 [0 0 0 0] ------- [2:255 -1:255 1 0] [- H - 0x000c] 
s 94.000000000 _0_ RTR  --- 472 IMEP 32 [0 0 0 0] ------- [0:255 -1:255 1 0] [- H - 0x000c] 
s 94.100000000 _1_ RTR  --- 474 IMEP 36 [0 0 0 0] ------- [1:255 -1:255 1 0] [- H - 0x0010] 
s 94.200000000 _2_ RTR  --- 477 IMEP 32 [0 0 0 0] ------- [2:255 -1:255 1 0] [- H - 0x000c] 
s 95.000000000 _0_ RTR  --- 479 IMEP 32 [0 0 0 0] ------- [0:255 -1:255 1 0] [- H - 0x000c] 
s 95.100000000 _1_ RTR  --- 481 IMEP 36 [0 0 0 0] ------- [1:255 -1:255 1 0] [- H - 0x0010] 
s 95.200000000 _2_ RTR  --- 484 IMEP 32 [0 0 0 0] ------- [2:255 -1:255 1 0] [- H - 0x000c] 
s 96.000000000 _0_ RTR  --- 486 IMEP 32 [0 0 0 0] ------- [0:255 -1:255 1 0] [- H - 0x000c] 
s 96.100000000 _1_ RTR  --- 488 IMEP 36 [0 0 0 0] ------- [1:255 -1:255 1 0] [- H - 0x0010] 
s 96.200000000 _2_ RTR  --- 491 IMEP 32 [0 0 0 0] ------- [2:255 -1:255 1 0] [- H - 0x000c] 
s 97.000000000 _0_ RTR  --- 493 IMEP 32 [0 0 0 0] ------- [0:255 -1:255 1 0] [- H - 0x000c] 
s 97.100000000 _1_ RTR  --- 495 IMEP 36 [0 0 0 0] ------- [1:255 -1:255 1 0] [- H - 0x0010] 
s 97.200000000 _2_ RTR  --- 498 IMEP 32 [0 0 0 0] ------- [2:255 -1:255 1 0] [- H - 0x000c] 
s 98.000000000 _0_ RTR  --- 500 IMEP 32 [0 0 0 0] ------- [0:255 -1:255 1 0] [- H - 0x000c] 
s 98.100000000 _1_ RTR  --- 502 IMEP 36 [0 0 0 0] ------- [1:255 -1:255 1 0] [- H - 0x0010] 
s 98.200000000 _2_ RTR  --- 505 IMEP 32 [0 0 0 0] ------- [2:255 -1:255 1 0] [- H - 0x000c] 
s 99.000000000 _0_ RTR  --- 507 IMEP 32 [0 0 0 0] ------- [0:255 -1:255 1 0] [- H - 0x000c] 
s 99.100000000 _1_ RTR  --- 509 IMEP 36 [0 0 0 0] ------- [1:255 -1:255 1 0] [- H - 0x0010] 
s 99.200000000 _2_ RTR  --- 512 IMEP 32 [0 0 0 0] ------- [2:255 -1:255 1 0] [- H - 0x000c] 
s 100.000000000 _0_ RTR  --- 514 IMEP 32 [0 0 0 0] ------- [0:255 -1:255 1 0] [- H - 0x000c] 
s 100.100000000 _1_ RTR  --- 516 IMEP 36 [0 0 0 0] ------- [1:255 -1:255 1 0] [- H - 0x0010] 
s 100.200000000 _2_ RTR  --- 519 IMEP 32 [0 0 0 0] ------- [2:255 -1:255 1 0] [- H - 0x000c] 
s 101.000000000 _0_ RTR  --- 521 IMEP 32 [0 0 0 0] ------- [0:255 -1:255 1 0] [- H - 0x000c] 
s 101.100000000 _1_ RTR  --- 523 IMEP 36 [0 0 0 0] ------- [1:255 -1:255 1 0] [- H - 0x0010] 
s 101.200000000 _2_ RTR  --- 526 IMEP 32 [0 0 0 0] ------- [2:255 -1:255 1 0] [- H - 0x000c] 
s 102.000000000 _0_ RTR  --- 528 IMEP 32 [0 0 0 0] ------- [0:255 -1:255 1 0] [- H - 0x000c] 
s 102.100000000 _1_ RTR  --- 530 IMEP 36 [0 0 0 0] ------- [1:255 -1:255 1 0] [- H - 0x0010] 
s 102.200000000 _2_ RTR  --- 533 IMEP 32 [0 0 0 0] ------- [2:255 -1:255 1 0] [- H - 0x000c] 
s 103.000000000 _0_ RTR  --- 535 IMEP 32 [0 0 0 0] ------- [0:255 -1:255 1 0] [- H - 0x000c] 
s 103.100000000 _1_ RTR  --- 537 IMEP 36 [0 0 0 0] ------- [1:255 -1:255 1 0] [- H - 0x0010] 
s 103.200000000 _2_ RTR  --- 540 IMEP 32 [0 0 0 0] ------- [2:255 -1:255 1 0] [- H - 0x000c] 
s 104.000000000 _0_ RTR  --- 542 IMEP 32 [0 0 0 0] ------- [0:255 -1:255 1 0] [- H - 0x000c] 
s 104.100000000 _1_ RTR  --- 544 IMEP 36 [0 0 0 0] ------- [1:255 -1:255 1 0] [- H - 0x0010] 
s 104.200000000 _2_ RTR  --- 547 IMEP 32 [0 0 0 0] ------- [2:255 -1:255 1 0] [- H - 0x000c] 
s 105.000000000 _0_ RTR  --- 549 IMEP 32 [0 0 0 0] ------- [0:255 -1:255 1 0] [- H - 0x000c] 
s 105.100000000 _1_ RTR  --- 551 IMEP 36 [0 0 0 0] ------- [1:255 -1:255 1 0] [- H - 0x0010] 
s 105.200000000 _2_ RTR  --- 554 IMEP 32 [0 0 0 0] ------- [2:255 -1:255 1 0] [- H - 0x000c] 
s 106.000000000 _0_ RTR  --- 556 IMEP 32 [0 0 0 0] ------- [0:255 -1:255 1 0] [- H - 0x000c] 
s 106.100000000 _1_ RTR  --- 558 IMEP 36 [0 0 0 0] ------- [1:255 -1:255 1 0] [- H - 0x0010] 
s 106.200000000 _2_ RTR  --- 561 IMEP 32 [0 0 0 0] ------- [2:255 -1:255 1 0] [- H - 0x000c] 
s 107.000000000 _0_ RTR  --- 563 IMEP 32 [0 0 0 0] ------- [0:255 -1:255 1 0] [- H - 0x000c] 