+ 0 0 2 tcp 40 ------- 1 0.0 3.0 0 0 0 0x0 0 0
- 0 0 2 tcp 40 ------- 1 0.0 3.0 0 0 0 0x0 0 0
r 4e-05 0 2 tcp 40 ------- 1 0.0 3.0 0 0 0 0x0 0 0
+ 4e-05 2 3 tcp 40 ------- 1 0.0 3.0 0 0 0 0x0 0 0
- 4e-05 2 3 tcp 40 ------- 1 0.0 3.0 0 0 0 0x0 0 0
r 0.10044 2 3 tcp 40 ------- 1 0.0 3.0 0 0 0 0x0 0 0
+ 0.10044 3 2 ack 40 ------- 1 3.0 0.0 0 1 0 0x0 0 0
- 0.10044 3 2 ack 40 ------- 1 3.0 0.0 0 1 0 0x0 0 0
r 0.20084 3 2 ack 40 ------- 1 3.0 0.0 0 1 0 0x0 0 0
+ 0.20084 2 0 ack 40 ------- 1 3.0 0.0 0 1 0 0x0 0 0
- 0.20084 2 0 ack 40 ------- 1 3.0 0.0 0 1 0 0x0 0 0
r 0.20088 2 0 ack 40 ------- 1 3.0 0.0 0 1 0 0x0 0 0
+ 0.20088 0 2 tcp 1040 ------- 1 0.0 3.0 1 2 0 0x0 0 0
- 0.20088 0 2 tcp 1040 ------- 1 0.0 3.0 1 2 0 0x0 0 0
+ 0.20088 0 2 tcp 1040 ------- 1 0.0 3.0 2 3 0 0x0 0 0
r 0.20192 0 2 tcp 1040 ------- 1 0.0 3.0 1 2 0 0x0 0 0
+ 0.20192 2 3 tcp 1040 ------- 1 0.0 3.0 1 2 0 0x0 0 0
- 0.20192 2 3 tcp 1040 ------- 1 0.0 3.0 1 2 0 0x0 0 0
- 0.20192 0 2 tcp 1040 ------- 1 0.0 3.0 2 3 0 0x0 0 0
r 0.20296 0 2 tcp 1040 ------- 1 0.0 3.0 2 3 0 0x0 0 0
+ 0.20296 2 3 tcp 1040 ------- 1 0.0 3.0 2 3 0 0x0 0 0
- 0.21232 2 3 tcp 1040 ------- 1 0.0 3.0 2 3 0 0x0 0 0
r 0.31232 2 3 tcp 1040 ------- 1 0.0 3.0 1 2 0 0x0 0 0
+ 0.31232 3 2 ack 40 ------- 1 3.0 0.0 1 4 0 0x0 0 0
- 0.31232 3 2 ack 40 ------- 1 3.0 0.0 1 4 0 0x0 0 0
r 0.32272 2 3 tcp 1040 ------- 1 0.0 3.0 2 3 0 0x0 0 0
+ 0.32272 3 2 ack 40 ------- 1 3.0 0.0 2 5 0 0x0 0 0
- 0.32272 3 2 ack 40 ------- 1 3.0 0.0 2 5 0 0x0 0 0
r 0.41272 3 2 ack 40 ------- 1 3.0 0.0 1 4 0 0x0 0 0
+ 0.41272 2 0 ack 40 ------- 1 3.0 0.0 1 4 0 0x0 0 0
- 0.41272 2 0 ack 40 ------- 1 3.0 0.0 1 4 0 0x0 0 0
r 0.41276 2 0 ack 40 ------- 1 3.0 0.0 1 4 0 0x0 0 0
+ 0.41276 0 2 tcp 1040 ------- 1 0.0 3.0 3 6 0 0x0 0 0
- 0.41276 0 2 tcp 1040 ------- 1 0.0 3.0 3 6 0 0x0 0 0
+ 0.41276 0 2 tcp 1040 ------- 1 0.0 3.0 4 7 0 0x0 0 0
r 0.4138 0 2 tcp 1040 ------- 1 0.0 3.0 3 6 0 0x0 0 0
+ 0.4138 2 3 tcp 1040 ------- 1 0.0 3.0 3 6 0 0x0 0 0
- 0.4138 2 3 tcp 1040 ------- 1 0.0 3.0 3 6 0 0x0 0 0
- 0.4138 0 2 tcp 1040 ------- 1 0.0 3.0 4 7 0 0x0 0 0
r 0.41484 0 2 tcp 1040 ------- 1 0.0 3.0 4 7 0 0x0 0 0
+ 0.41484 2 3 tcp 1040 ------- 1 0.0 3.0 4 7 0 0x0 0 0
r 0.42312 3 2 ack 40 ------- 1 3.0 0.0 2 5 0 0x0 0 0
+ 0.42312 2 0 ack 40 ------- 1 3.0 0.0 2 5 0 0x0 0 0
- 0.42312 2 0 ack 40 ------- 1 3.0 0.0 2 5 0 0x0 0 0
r 0.42316 2 0 ack 40 ------- 1 3.0 0.0 2 5 0 0x0 0 0
+ 0.42316 0 2 tcp 1040 ------- 1 0.0 3.0 5 8 0 0x0 0 0
- 0.42316 0 2 tcp 1040 ------- 1 0.0 3.0 5 8 0 0x0 0 0
+ 0.42316 0 2 tcp 1040 ------- 1 0.0 3.0 6 9 0 0x0 0 0
r 0.4242 0 2 tcp 1040 ------- 1 0.0 3.0 5 8 0 0x0 0 0
+ 0.4242 2 3 tcp 1040 ------- 1 0.0 3.0 5 8 0 0x0 0 0
- 0.4242 0 2 tcp 1040 ------- 1 0.0 3.0 6 9 0 0x0 0 0
- 0.4242 2 3 tcp 1040 ------- 1 0.0 3.0 4 7 0 0x0 0 0
r 0.42524 0 2 tcp 1040 ------- 1 0.0 3.0 6 9 0 0x0 0 0
+ 0.42524 2 3 tcp 1040 ------- 1 0.0 3.0 6 9 0 0x0 0 0
- 0.4346 2 3 tcp 1040 ------- 1 0.0 3.0 5 8 0 0x0 0 0
- 0.445 2 3 tcp 1040 ------- 1 0.0 3.0 6 9 0 0x0 0 0
r 0.5242 2 3 tcp 1040 ------- 1 0.0 3.0 3 6 0 0x0 0 0
+ 0.5242 3 2 ack 40 ------- 1 3.0 0.0 3 10 0 0x0 0 0
- 0.5242 3 2 ack 40 ------- 1 3.0 0.0 3 10 0 0x0 0 0
r 0.5346 2 3 tcp 1040 ------- 1 0.0 3.0 4 7 0 0x0 0 0
+ 0.5346 3 2 ack 40 ------- 1 3.0 0.0 4 11 0 0x0 0 0
- 0.5346 3 2 ack 40 ------- 1 3.0 0.0 4 11 0 0x0 0 0
r 0.545 2 3 tcp 1040 ------- 1 0.0 3.0 5 8 0 0x0 0 0
+ 0.545 3 2 ack 40 ------- 1 3.0 0.0 5 12 0 0x0 0 0
- 0.545 3 2 ack 40 ------- 1 3.0 0.0 5 12 0 0x0 0 0
r 0.5554 2 3 tcp 1040 ------- 1 0.0 3.0 6 9 0 0x0 0 0
+ 0.5554 3 2 ack 40 ------- 1 3.0 0.0 6 13 0 0x0 0 0
- 0.5554 3 2 ack 40 ------- 1 3.0 0.0 6 13 0 0x0 0 0
r 0.6246 3 2 ack 40 ------- 1 3.0 0.0 3 10 0 0x0 0 0
+ 0.6246 2 0 ack 40 ------- 1 3.0 0.0 3 10 0 0x0 0 0
- 0.6246 2 0 ack 40 ------- 1 3.0 0.0 3 10 0 0x0 0 0
r 0.62464 2 0 ack 40 ------- 1 3.0 0.0 3 10 0 0x0 0 0
+ 0.62464 0 2 tcp 1040 ------- 1 0.0 3.0 7 14 0 0x0 0 0
- 0.62464 0 2 tcp 1040 ------- 1 0.0 3.0 7 14 0 0x0 0 0
+ 0.62464 0 2 tcp 1040 ------- 1 0.0 3.0 8 15 0 0x0 0 0
r 0.62568 0 2 tcp 1040 ------- 1 0.0 3.0 7 14 0 0x0 0 0
+ 0.62568 2 3 tcp 1040 ------- 1 0.0 3.0 7 14 0 0x0 0 0
- 0.62568 2 3 tcp 1040 ------- 1 0.0 3.0 7 14 0 0x0 0 0
- 0.62568 0 2 tcp 1040 ------- 1 0.0 3.0 8 15 0 0x0 0 0
r 0.62672 0 2 tcp 1040 ------- 1 0.0 3.0 8 15 0 0x0 0 0
+ 0.62672 2 3 tcp 1040 ------- 1 0.0 3.0 8 15 0 0x0 0 0
r 0.635 3 2 ack 40 ------- 1 3.0 0.0 4 11 0 0x0 0 0
+ 0.635 2 0 ack 40 ------- 1 3.0 0.0 4 11 0 0x0 0 0
- 0.635 2 0 ack 40 ------- 1 3.0 0.0 4 11 0 0x0 0 0
r 0.63504 2 0 ack 40 ------- 1 3.0 0.0 4 11 0 0x0 0 0
+ 0.63504 0 2 tcp 1040 ------- 1 0.0 3.0 9 16 0 0x0 0 0
- 0.63504 0 2 tcp 1040 ------- 1 0.0 3.0 9 16 0 0x0 0 0
+ 0.63504 0 2 tcp 1040 ------- 1 0.0 3.0 10 17 0 0x0 0 0
- 0.63608 2 3 tcp 1040 ------- 1 0.0 3.0 8 15 0 0x0 0 0
r 0.63608 0 2 tcp 1040 ------- 1 0.0 3.0 9 16 0 0x0 0 0
+ 0.63608 2 3 tcp 1040 ------- 1 0.0 3.0 9 16 0 0x0 0 0
- 0.63608 0 2 tcp 1040 ------- 1 0.0 3.0 10 17 0 0x0 0 0
r 0.63712 0 2 tcp 1040 ------- 1 0.0 3.0 10 17 0 0x0 0 0
+ 0.63712 2 3 tcp 1040 ------- 1 0.0 3.0 10 17 0 0x0 0 0
r 0.6454 3 2 ack 40 ------- 1 3.0 0.0 5 12 0 0x0 0 0
+ 0.6454 2 0 ack 40 ------- 1 3.0 0.0 5 12 0 0x0 0 0
- 0.6454 2 0 ack 40 ------- 1 3.0 0.0 5 12 0 0x0 0 0
r 0.64544 2 0 ack 40 ------- 1 3.0 0.0 5 12 0 0x0 0 0
+ 0.64544 0 2 tcp 1040 ------- 1 0.0 3.0 11 18 0 0x0 0 0
- 0.64544 0 2 tcp 1040 ------- 1 0.0 3.0 11 18 0 0x0 0 0
+ 0.64544 0 2 tcp 1040 ------- 1 0.0 3.0 12 19 0 0x0 0 0
- 0.64648 2 3 tcp 1040 ------- 1 0.0 3.0 9 16 0 0x0 0 0
r 0.64648 0 2 tcp 1040 ------- 1 0.0 3.0 11 18 0 0x0 0 0
+ 0.64648 2 3 tcp 1040 ------- 1 0.0 3.0 11 18 0 0x0 0 0
- 0.64648 0 2 tcp 1040 ------- 1 0.0 3.0 12 19 0 0x0 0 0
r 0.64752 0 2 tcp 1040 ------- 1 0.0 3.0 12 19 0 0x0 0 0
+ 0.64752 2 3 tcp 1040 ------- 1 0.0 3.0 12 19 0 0x0 0 0
r 0.6558 3 2 ack 40 ------- 1 3.0 0.0 6 13 0 0x0 0 0
+ 0.6558 2 0 ack 40 ------- 1 3.0 0.0 6 13 0 0x0 0 0
- 0.6558 2 0 ack 40 ------- 1 3.0 0.0 6 13 0 0x0 0 0
r 0.65584 2 0 ack 40 ------- 1 3.0 0.0 6 13 0 0x0 0 0
+ 0.65584 0 2 tcp 1040 ------- 1 0.0 3.0 13 20 0 0x0 0 0
- 0.65584 0 2 tcp 1040 ------- 1 0.0 3.0 13 20 0 0x0 0 0
+ 0.65584 0 2 tcp 1040 ------- 1 0.0 3.0 14 21 0 0x0 0 0
- 0.65688 2 3 tcp 1040 ------- 1 0.0 3.0 10 17 0 0x0 0 0
r 0.65688 0 2 tcp 1040 ------- 1 0.0 3.0 13 20 0 0x0 0 0
+ 0.65688 2 3 tcp 1040 ------- 1 0.0 3.0 13 20 0 0x0 0 0
- 0.65688 0 2 tcp 1040 ------- 1 0.0 3.0 14 21 0 0x0 0 0
r 0.65792 0 2 tcp 1040 ------- 1 0.0 3.0 14 21 0 0x0 0 0
+ 0.65792 2 3 tcp 1040 ------- 1 0.0 3.0 14 21 0 0x0 0 0
- 0.66728 2 3 tcp 1040 ------- 1 0.0 3.0 11 18 0 0x0 0 0
- 0.67768 2 3 tcp 1040 ------- 1 0.0 3.0 12 19 0 0x0 0 0
- 0.68808 2 3 tcp 1040 ------- 1 0.0 3.0 13 20 0 0x0 0 0
- 0.69848 2 3 tcp 1040 ------- 1 0.0 3.0 14 21 0 0x0 0 0
r 0.73608 2 3 tcp 1040 ------- 1 0.0 3.0 7 14 0 0x0 0 0
+ 0.73608 3 2 ack 40 ------- 1 3.0 0.0 7 22 0 0x0 0 0
- 0.73608 3 2 ack 40 ------- 1 3.0 0.0 7 22 0 0x0 0 0
r 0.74648 2 3 tcp 1040 ------- 1 0.0 3.0 8 15 0 0x0 0 0
+ 0.74648 3 2 ack 40 ------- 1 3.0 0.0 8 23 0 0x0 0 0
- 0.74648 3 2 ack 40 ------- 1 3.0 0.0 8 23 0 0x0 0 0
r 0.75688 2 3 tcp 1040 ------- 1 0.0 3.0 9 16 0 0x0 0 0
+ 0.75688 3 2 ack 40 ------- 1 3.0 0.0 9 24 0 0x0 0 0
- 0.75688 3 2 ack 40 ------- 1 3.0 0.0 9 24 0 0x0 0 0
r 0.76728 2 3 tcp 1040 ------- 1 0.0 3.0 10 17 0 0x0 0 0
+ 0.76728 3 2 ack 40 ------- 1 3.0 0.0 10 25 0 0x0 0 0
- 0.76728 3 2 ack 40 ------- 1 3.0 0.0 10 25 0 0x0 0 0
r 0.77768 2 3 tcp 1040 ------- 1 0.0 3.0 11 18 0 0x0 0 0
+ 0.77768 3 2 ack 40 ------- 1 3.0 0.0 11 26 0 0x0 0 0
- 0.77768 3 2 ack 40 ------- 1 3.0 0.0 11 26 0 0x0 0 0
r 0.78808 2 3 tcp 1040 ------- 1 0.0 3.0 12 19 0 0x0 0 0
+ 0.78808 3 2 ack 40 ------- 1 3.0 0.0 12 27 0 0x0 0 0
- 0.78808 3 2 ack 40 ------- 1 3.0 0.0 12 27 0 0x0 0 0
r 0.79848 2 3 tcp 1040 ------- 1 0.0 3.0 13 20 0 0x0 0 0
+ 0.79848 3 2 ack 40 ------- 1 3.0 0.0 13 28 0 0x0 0 0
- 0.79848 3 2 ack 40 ------- 1 3.0 0.0 13 28 0 0x0 0 0
r 0.80888 2 3 tcp 1040 ------- 1 0.0 3.0 14 21 0 0x0 0 0
+ 0.80888 3 2 ack 40 ------- 1 3.0 0.0 14 29 0 0x0 0 0
- 0.80888 3 2 ack 40 ------- 1 3.0 0.0 14 29 0 0x0 0 0
r 0.83648 3 2 ack 40 ------- 1 3.0 0.0 7 22 0 0x0 0 0
+ 0.83648 2 0 ack 40 ------- 1 3.0 0.0 7 22 0 0x0 0 0
- 0.83648 2 0 ack 40 ------- 1 3.0 0.0 7 22 0 0x0 0 0
r 0.83652 2 0 ack 40 ------- 1 3.0 0.0 7 22 0 0x0 0 0
+ 0.83652 0 2 tcp 1040 ------- 1 0.0 3.0 15 30 0 0x0 0 0
- 0.83652 0 2 tcp 1040 ------- 1 0.0 3.0 15 30 0 0x0 0 0
+ 0.83652 0 2 tcp 1040 ------- 1 0.0 3.0 16 31 0 0x0 0 0
r 0.83756 0 2 tcp 1040 ------- 1 0.0 3.0 15 30 0 0x0 0 0
+ 0.83756 2 3 tcp 1040 ------- 1 0.0 3.0 15 30 0 0x0 0 0
- 0.83756 2 3 tcp 1040 ------- 1 0.0 3.0 15 30 0 0x0 0 0
- 0.83756 0 2 tcp 1040 ------- 1 0.0 3.0 16 31 0 0x0 0 0
r 0.8386 0 2 tcp 1040 ------- 1 0.0 3.0 16 31 0 0x0 0 0
+ 0.8386 2 3 tcp 1040 ------- 1 0.0 3.0 16 31 0 0x0 0 0
r 0.84688 3 2 ack 40 ------- 1 3.0 0.0 8 23 0 0x0 0 0
+ 0.84688 2 0 ack 40 ------- 1 3.0 0.0 8 23 0 0x0 0 0
- 0.84688 2 0 ack 40 ------- 1 3.0 0.0 8 23 0 0x0 0 0
r 0.84692 2 0 ack 40 ------- 1 3.0 0.0 8 23 0 0x0 0 0
+ 0.84692 0 2 tcp 1040 ------- 1 0.0 3.0 17 32 0 0x0 0 0
- 0.84692 0 2 tcp 1040 ------- 1 0.0 3.0 17 32 0 0x0 0 0
+ 0.84692 0 2 tcp 1040 ------- 1 0.0 3.0 18 33 0 0x0 0 0
- 0.84796 2 3 tcp 1040 ------- 1 0.0 3.0 16 31 0 0x0 0 0
r 0.84796 0 2 tcp 1040 ------- 1 0.0 3.0 17 32 0 0x0 0 0
+ 0.84796 2 3 tcp 1040 ------- 1 0.0 3.0 17 32 0 0x0 0 0
- 0.84796 0 2 tcp 1040 ------- 1 0.0 3.0 18 33 0 0x0 0 0
r 0.849 0 2 tcp 1040 ------- 1 0.0 3.0 18 33 0 0x0 0 0
+ 0.849 2 3 tcp 1040 ------- 1 0.0 3.0 18 33 0 0x0 0 0
r 0.85728 3 2 ack 40 ------- 1 3.0 0.0 9 24 0 0x0 0 0
+ 0.85728 2 0 ack 40 ------- 1 3.0 0.0 9 24 0 0x0 0 0
- 0.85728 2 0 ack 40 ------- 1 3.0 0.0 9 24 0 0x0 0 0
r 0.85732 2 0 ack 40 ------- 1 3.0 0.0 9 24 0 0x0 0 0
+ 0.85732 0 2 tcp 1040 ------- 1 0.0 3.0 19 34 0 0x0 0 0
- 0.85732 0 2 tcp 1040 ------- 1 0.0 3.0 19 34 0 0x0 0 0
+ 0.85732 0 2 tcp 1040 ------- 1 0.0 3.0 20 35 0 0x0 0 0
- 0.85836 2 3 tcp 1040 ------- 1 0.0 3.0 17 32 0 0x0 0 0
r 0.85836 0 2 tcp 1040 ------- 1 0.0 3.0 19 34 0 0x0 0 0
+ 0.85836 2 3 tcp 1040 ------- 1 0.0 3.0 19 34 0 0x0 0 0
- 0.85836 0 2 tcp 1040 ------- 1 0.0 3.0 20 35 0 0x0 0 0
r 0.8594 0 2 tcp 1040 ------- 1 0.0 3.0 20 35 0 0x0 0 0
d 0.8594 2 3 tcp 1040 ------- 1 0.0 3.0 20 35 0 0x0 0 0
r 0.86768 3 2 ack 40 ------- 1 3.0 0.0 10 25 0 0x0 0 0
+ 0.86768 2 0 ack 40 ------- 1 3.0 0.0 10 25 0 0x0 0 0
- 0.86768 2 0 ack 40 ------- 1 3.0 0.0 10 25 0 0x0 0 0
r 0.86772 2 0 ack 40 ------- 1 3.0 0.0 10 25 0 0x0 0 0
+ 0.86772 0 2 tcp 1040 ------- 1 0.0 3.0 21 36 0 0x0 0 0
- 0.86772 0 2 tcp 1040 ------- 1 0.0 3.0 21 36 0 0x0 0 0
+ 0.86772 0 2 tcp 1040 ------- 1 0.0 3.0 22 37 0 0x0 0 0
- 0.86876 2 3 tcp 1040 ------- 1 0.0 3.0 18 33 0 0x0 0 0
r 0.86876 0 2 tcp 1040 ------- 1 0.0 3.0 21 36 0 0x0 0 0
d 0.86876 2 3 tcp 1040 ------- 1 0.0 3.0 21 36 0 0x0 0 0
- 0.86876 0 2 tcp 1040 ------- 1 0.0 3.0 22 37 0 0x0 0 0
r 0.8698 0 2 tcp 1040 ------- 1 0.0 3.0 22 37 0 0x0 0 0
d 0.8698 2 3 tcp 1040 ------- 1 0.0 3.0 22 37 0 0x0 0 0
r 0.87808 3 2 ack 40 ------- 1 3.0 0.0 11 26 0 0x0 0 0
+ 0.87808 2 0 ack 40 ------- 1 3.0 0.0 11 26 0 0x0 0 0
- 0.87808 2 0 ack 40 ------- 1 3.0 0.0 11 26 0 0x0 0 0
r 0.87812 2 0 ack 40 ------- 1 3.0 0.0 11 26 0 0x0 0 0
+ 0.87812 0 2 tcp 1040 ------- 1 0.0 3.0 23 38 0 0x0 0 0
- 0.87812 0 2 tcp 1040 ------- 1 0.0 3.0 23 38 0 0x0 0 0
+ 0.87812 0 2 tcp 1040 ------- 1 0.0 3.0 24 39 0 0x0 0 0
- 0.87916 2 3 tcp 1040 ------- 1 0.0 3.0 19 34 0 0x0 0 0
r 0.87916 0 2 tcp 1040 ------- 1 0.0 3.0 23 38 0 0x0 0 0
d 0.87916 2 3 tcp 1040 ------- 1 0.0 3.0 23 38 0 0x0 0 0
- 0.87916 0 2 tcp 1040 ------- 1 0.0 3.0 24 39 0 0x0 0 0
r 0.8802 0 2 tcp 1040 ------- 1 0.0 3.0 24 39 0 0x0 0 0
d 0.8802 2 3 tcp 1040 ------- 1 0.0 3.0 24 39 0 0x0 0 0
r 0.88848 3 2 ack 40 ------- 1 3.0 0.0 12 27 0 0x0 0 0
+ 0.88848 2 0 ack 40 ------- 1 3.0 0.0 12 27 0 0x0 0 0
- 0.88848 2 0 ack 40 ------- 1 3.0 0.0 12 27 0 0x0 0 0
r 0.88852 2 0 ack 40 ------- 1 3.0 0.0 12 27 0 0x0 0 0
+ 0.88852 0 2 tcp 1040 ------- 1 0.0 3.0 25 40 0 0x0 0 0
- 0.88852 0 2 tcp 1040 ------- 1 0.0 3.0 25 40 0 0x0 0 0
+ 0.88852 0 2 tcp 1040 ------- 1 0.0 3.0 26 41 0 0x0 0 0
r 0.88956 0 2 tcp 1040 ------- 1 0.0 3.0 25 40 0 0x0 0 0
d 0.88956 2 3 tcp 1040 ------- 1 0.0 3.0 25 40 0 0x0 0 0
- 0.88956 0 2 tcp 1040 ------- 1 0.0 3.0 26 41 0 0x0 0 0
r 0.8906 0 2 tcp 1040 ------- 1 0.0 3.0 26 41 0 0x0 0 0
d 0.8906 2 3 tcp 1040 ------- 1 0.0 3.0 26 41 0 0x0 0 0
r 0.89888 3 2 ack 40 ------- 1 3.0 0.0 13 28 0 0x0 0 0
+ 0.89888 2 0 ack 40 ------- 1 3.0 0.0 13 28 0 0x0 0 0
- 0.89888 2 0 ack 40 ------- 1 3.0 0.0 13 28 0 0x0 0 0
r 0.89892 2 0 ack 40 ------- 1 3.0 0.0 13 28 0 0x0 0 0
+ 0.89892 0 2 tcp 1040 ------- 1 0.0 3.0 27 42 0 0x0 0 0
- 0.89892 0 2 tcp 1040 ------- 1 0.0 3.0 27 42 0 0x0 0 0
+ 0.89892 0 2 tcp 1040 ------- 1 0.0 3.0 28 43 0 0x0 0 0
r 0.89996 0 2 tcp 1040 ------- 1 0.0 3.0 27 42 0 0x0 0 0
+ 0.89996 2 3 tcp 1040 ------- 1 0.0 3.0 27 42 0 0x0 0 0
- 0.89996 2 3 tcp 1040 ------- 1 0.0 3.0 27 42 0 0x0 0 0
- 0.89996 0 2 tcp 1040 ------- 1 0.0 3.0 28 43 0 0x0 0 0
r 0.901 0 2 tcp 1040 ------- 1 0.0 3.0 28 43 0 0x0 0 0
+ 0.901 2 3 tcp 1040 ------- 1 0.0 3.0 28 43 0 0x0 0 0
r 0.90928 3 2 ack 40 ------- 1 3.0 0.0 14 29 0 0x0 0 0
+ 0.90928 2 0 ack 40 ------- 1 3.0 0.0 14 29 0 0x0 0 0
- 0.90928 2 0 ack 40 ------- 1 3.0 0.0 14 29 0 0x0 0 0
r 0.90932 2 0 ack 40 ------- 1 3.0 0.0 14 29 0 0x0 0 0
+ 0.90932 0 2 tcp 1040 ------- 1 0.0 3.0 29 44 0 0x0 0 0
- 0.90932 0 2 tcp 1040 ------- 1 0.0 3.0 29 44 0 0x0 0 0
+ 0.90932 0 2 tcp 1040 ------- 1 0.0 3.0 30 45 0 0x0 0 0
- 0.91036 2 3 tcp 1040 ------- 1 0.0 3.0 28 43 0 0x0 0 0
r 0.91036 0 2 tcp 1040 ------- 1 0.0 3.0 29 44 0 0x0 0 0
+ 0.91036 2 3 tcp 1040 ------- 1 0.0 3.0 29 44 0 0x0 0 0
- 0.91036 0 2 tcp 1040 ------- 1 0.0 3.0 30 45 0 0x0 0 0
r 0.9114 0 2 tcp 1040 ------- 1 0.0 3.0 30 45 0 0x0 0 0
+ 0.9114 2 3 tcp 1040 ------- 1 0.0 3.0 30 45 0 0x0 0 0
- 0.92076 2 3 tcp 1040 ------- 1 0.0 3.0 29 44 0 0x0 0 0
- 0.93116 2 3 tcp 1040 ------- 1 0.0 3.0 30 45 0 0x0 0 0
r 0.94796 2 3 tcp 1040 ------- 1 0.0 3.0 15 30 0 0x0 0 0
+ 0.94796 3 2 ack 40 ------- 1 3.0 0.0 15 46 0 0x0 0 0
- 0.94796 3 2 ack 40 ------- 1 3.0 0.0 15 46 0 0x0 0 0
r 0.95836 2 3 tcp 1040 ------- 1 0.0 3.0 16 31 0 0x0 0 0
+ 0.95836 3 2 ack 40 ------- 1 3.0 0.0 16 47 0 0x0 0 0
- 0.95836 3 2 ack 40 ------- 1 3.0 0.0 16 47 0 0x0 0 0
r 0.96876 2 3 tcp 1040 ------- 1 0.0 3.0 17 32 0 0x0 0 0
+ 0.96876 3 2 ack 40 ------- 1 3.0 0.0 17 48 0 0x0 0 0
- 0.96876 3 2 ack 40 ------- 1 3.0 0.0 17 48 0 0x0 0 0
r 0.97916 2 3 tcp 1040 ------- 1 0.0 3.0 18 33 0 0x0 0 0
+ 0.97916 3 2 ack 40 ------- 1 3.0 0.0 18 49 0 0x0 0 0
- 0.97916 3 2 ack 40 ------- 1 3.0 0.0 18 49 0 0x0 0 0
r 0.98956 2 3 tcp 1040 ------- 1 0.0 3.0 19 34 0 0x0 0 0
+ 0.98956 3 2 ack 40 ------- 1 3.0 0.0 19 50 0 0x0 0 0
- 0.98956 3 2 ack 40 ------- 1 3.0 0.0 19 50 0 0x0 0 0
r 1.01036 2 3 tcp 1040 ------- 1 0.0 3.0 27 42 0 0x0 0 0
+ 1.01036 3 2 ack 40 ------- 1 3.0 0.0 19 51 0 0x0 0 0
- 1.01036 3 2 ack 40 ------- 1 3.0 0.0 19 51 0 0x0 0 0
r 1.02076 2 3 tcp 1040 ------- 1 0.0 3.0 28 43 0 0x0 0 0
+ 1.02076 3 2 ack 40 ------- 1 3.0 0.0 19 52 0 0x0 0 0
- 1.02076 3 2 ack 40 ------- 1 3.0 0.0 19 52 0 0x0 0 0
r 1.03116 2 3 tcp 1040 ------- 1 0.0 3.0 29 44 0 0x0 0 0
+ 1.03116 3 2 ack 40 ------- 1 3.0 0.0 19 53 0 0x0 0 0
- 1.03116 3 2 ack 40 ------- 1 3.0 0.0 19 53 0 0x0 0 0
r 1.04156 2 3 tcp 1040 ------- 1 0.0 3.0 30 45 0 0x0 0 0
+ 1.04156 3 2 ack 40 ------- 1 3.0 0.0 19 54 0 0x0 0 0
- 1.04156 3 2 ack 40 ------- 1 3.0 0.0 19 54 0 0x0 0 0
r 1.04836 3 2 ack 40 ------- 1 3.0 0.0 15 46 0 0x0 0 0
+ 1.04836 2 0 ack 40 ------- 1 3.0 0.0 15 46 0 0x0 0 0
- 1.04836 2 0 ack 40 ------- 1 3.0 0.0 15 46 0 0x0 0 0
r 1.0484 2 0 ack 40 ------- 1 3.0 0.0 15 46 0 0x0 0 0
+ 1.0484 0 2 tcp 1040 ------- 1 0.0 3.0 31 55 0 0x0 0 0
- 1.0484 0 2 tcp 1040 ------- 1 0.0 3.0 31 55 0 0x0 0 0
+ 1.0484 0 2 tcp 1040 ------- 1 0.0 3.0 32 56 0 0x0 0 0
r 1.04944 0 2 tcp 1040 ------- 1 0.0 3.0 31 55 0 0x0 0 0
d 1.04944 2 3 tcp 1040 ------- 1 0.0 3.0 31 55 0 0x0 0 0
- 1.04944 0 2 tcp 1040 ------- 1 0.0 3.0 32 56 0 0x0 0 0
r 1.05048 0 2 tcp 1040 ------- 1 0.0 3.0 32 56 0 0x0 0 0
+ 1.05048 2 3 tcp 1040 ------- 1 0.0 3.0 32 56 0 0x0 0 0
- 1.05048 2 3 tcp 1040 ------- 1 0.0 3.0 32 56 0 0x0 0 0
r 1.05876 3 2 ack 40 ------- 1 3.0 0.0 16 47 0 0x0 0 0
+ 1.05876 2 0 ack 40 ------- 1 3.0 0.0 16 47 0 0x0 0 0
- 1.05876 2 0 ack 40 ------- 1 3.0 0.0 16 47 0 0x0 0 0
r 1.0588 2 0 ack 40 ------- 1 3.0 0.0 16 47 0 0x0 0 0
+ 1.0588 0 2 tcp 1040 ------- 1 0.0 3.0 33 57 0 0x0 0 0
- 1.0588 0 2 tcp 1040 ------- 1 0.0 3.0 33 57 0 0x0 0 0
+ 1.0588 0 2 tcp 1040 ------- 1 0.0 3.0 34 58 0 0x0 0 0
r 1.05984 0 2 tcp 1040 ------- 1 0.0 3.0 33 57 0 0x0 0 0
+ 1.05984 2 3 tcp 1040 ------- 1 0.0 3.0 33 57 0 0x0 0 0
- 1.05984 0 2 tcp 1040 ------- 1 0.0 3.0 34 58 0 0x0 0 0
- 1.06088 2 3 tcp 1040 ------- 1 0.0 3.0 33 57 0 0x0 0 0
r 1.06088 0 2 tcp 1040 ------- 1 0.0 3.0 34 58 0 0x0 0 0
+ 1.06088 2 3 tcp 1040 ------- 1 0.0 3.0 34 58 0 0x0 0 0
r 1.06916 3 2 ack 40 ------- 1 3.0 0.0 17 48 0 0x0 0 0
+ 1.06916 2 0 ack 40 ------- 1 3.0 0.0 17 48 0 0x0 0 0
- 1.06916 2 0 ack 40 ------- 1 3.0 0.0 17 48 0 0x0 0 0
r 1.0692 2 0 ack 40 ------- 1 3.0 0.0 17 48 0 0x0 0 0
+ 1.0692 0 2 tcp 1040 ------- 1 0.0 3.0 35 59 0 0x0 0 0
- 1.0692 0 2 tcp 1040 ------- 1 0.0 3.0 35 59 0 0x0 0 0
+ 1.0692 0 2 tcp 1040 ------- 1 0.0 3.0 36 60 0 0x0 0 0
r 1.07024 0 2 tcp 1040 ------- 1 0.0 3.0 35 59 0 0x0 0 0
+ 1.07024 2 3 tcp 1040 ------- 1 0.0 3.0 35 59 0 0x0 0 0
- 1.07024 0 2 tcp 1040 ------- 1 0.0 3.0 36 60 0 0x0 0 0
- 1.07128 2 3 tcp 1040 ------- 1 0.0 3.0 34 58 0 0x0 0 0
r 1.07128 0 2 tcp 1040 ------- 1 0.0 3.0 36 60 0 0x0 0 0
+ 1.07128 2 3 tcp 1040 ------- 1 0.0 3.0 36 60 0 0x0 0 0
r 1.07956 3 2 ack 40 ------- 1 3.0 0.0 18 49 0 0x0 0 0
+ 1.07956 2 0 ack 40 ------- 1 3.0 0.0 18 49 0 0x0 0 0
- 1.07956 2 0 ack 40 ------- 1 3.0 0.0 18 49 0 0x0 0 0
r 1.0796 2 0 ack 40 ------- 1 3.0 0.0 18 49 0 0x0 0 0
+ 1.0796 0 2 tcp 1040 ------- 1 0.0 3.0 37 61 0 0x0 0 0
- 1.0796 0 2 tcp 1040 ------- 1 0.0 3.0 37 61 0 0x0 0 0
+ 1.0796 0 2 tcp 1040 ------- 1 0.0 3.0 38 62 0 0x0 0 0
r 1.08064 0 2 tcp 1040 ------- 1 0.0 3.0 37 61 0 0x0 0 0
+ 1.08064 2 3 tcp 1040 ------- 1 0.0 3.0 37 61 0 0x0 0 0
- 1.08064 0 2 tcp 1040 ------- 1 0.0 3.0 38 62 0 0x0 0 0
- 1.08168 2 3 tcp 1040 ------- 1 0.0 3.0 35 59 0 0x0 0 0
r 1.08168 0 2 tcp 1040 ------- 1 0.0 3.0 38 62 0 0x0 0 0
+ 1.08168 2 3 tcp 1040 ------- 1 0.0 3.0 38 62 0 0x0 0 0
r 1.08996 3 2 ack 40 ------- 1 3.0 0.0 19 50 0 0x0 0 0
+ 1.08996 2 0 ack 40 ------- 1 3.0 0.0 19 50 0 0x0 0 0
- 1.08996 2 0 ack 40 ------- 1 3.0 0.0 19 50 0 0x0 0 0
r 1.09 2 0 ack 40 ------- 1 3.0 0.0 19 50 0 0x0 0 0
+ 1.09 0 2 tcp 1040 ------- 1 0.0 3.0 39 63 0 0x0 0 0
- 1.09 0 2 tcp 1040 ------- 1 0.0 3.0 39 63 0 0x0 0 0
+ 1.09 0 2 tcp 1040 ------- 1 0.0 3.0 40 64 0 0x0 0 0
r 1.09104 0 2 tcp 1040 ------- 1 0.0 3.0 39 63 0 0x0 0 0
+ 1.09104 2 3 tcp 1040 ------- 1 0.0 3.0 39 63 0 0x0 0 0
- 1.09104 0 2 tcp 1040 ------- 1 0.0 3.0 40 64 0 0x0 0 0
- 1.09208 2 3 tcp 1040 ------- 1 0.0 3.0 36 60 0 0x0 0 0
r 1.09208 0 2 tcp 1040 ------- 1 0.0 3.0 40 64 0 0x0 0 0
+ 1.09208 2 3 tcp 1040 ------- 1 0.0 3.0 40 64 0 0x0 0 0
- 1.10248 2 3 tcp 1040 ------- 1 0.0 3.0 37 61 0 0x0 0 0
r 1.11076 3 2 ack 40 ------- 1 3.0 0.0 19 51 0 0x0 0 0
+ 1.11076 2 0 ack 40 ------- 1 3.0 0.0 19 51 0 0x0 0 0
- 1.11076 2 0 ack 40 ------- 1 3.0 0.0 19 51 0 0x0 0 0
r 1.1108 2 0 ack 40 ------- 1 3.0 0.0 19 51 0 0x0 0 0
- 1.11288 2 3 tcp 1040 ------- 1 0.0 3.0 38 62 0 0x0 0 0
r 1.12116 3 2 ack 40 ------- 1 3.0 0.0 19 52 0 0x0 0 0
+ 1.12116 2 0 ack 40 ------- 1 3.0 0.0 19 52 0 0x0 0 0
- 1.12116 2 0 ack 40 ------- 1 3.0 0.0 19 52 0 0x0 0 0
r 1.1212 2 0 ack 40 ------- 1 3.0 0.0 19 52 0 0x0 0 0
- 1.12328 2 3 tcp 1040 ------- 1 0.0 3.0 39 63 0 0x0 0 0
r 1.13156 3 2 ack 40 ------- 1 3.0 0.0 19 53 0 0x0 0 0
+ 1.13156 2 0 ack 40 ------- 1 3.0 0.0 19 53 0 0x0 0 0
- 1.13156 2 0 ack 40 ------- 1 3.0 0.0 19 53 0 0x0 0 0
r 1.1316 2 0 ack 40 ------- 1 3.0 0.0 19 53 0 0x0 0 0
+ 1.1316 0 2 tcp 1040 ------- 1 0.0 3.0 20 65 0 0x0 0 0
- 1.1316 0 2 tcp 1040 ------- 1 0.0 3.0 20 65 0 0x0 0 0
r 1.13264 0 2 tcp 1040 ------- 1 0.0 3.0 20 65 0 0x0 0 0
d 1.13264 2 3 tcp 1040 ------- 1 0.0 3.0 20 65 0 0x0 0 0
- 1.13368 2 3 tcp 1040 ------- 1 0.0 3.0 40 64 0 0x0 0 0
r 1.14196 3 2 ack 40 ------- 1 3.0 0.0 19 54 0 0x0 0 0
+ 1.14196 2 0 ack 40 ------- 1 3.0 0.0 19 54 0 0x0 0 0
- 1.14196 2 0 ack 40 ------- 1 3.0 0.0 19 54 0 0x0 0 0
r 1.142 2 0 ack 40 ------- 1 3.0 0.0 19 54 0 0x0 0 0
r 1.16088 2 3 tcp 1040 ------- 1 0.0 3.0 32 56 0 0x0 0 0
+ 1.16088 3 2 ack 40 ------- 1 3.0 0.0 19 66 0 0x0 0 0
- 1.16088 3 2 ack 40 ------- 1 3.0 0.0 19 66 0 0x0 0 0
r 1.17128 2 3 tcp 1040 ------- 1 0.0 3.0 33 57 0 0x0 0 0
+ 1.17128 3 2 ack 40 ------- 1 3.0 0.0 19 67 0 0x0 0 0
- 1.17128 3 2 ack 40 ------- 1 3.0 0.0 19 67 0 0x0 0 0
r 1.18168 2 3 tcp 1040 ------- 1 0.0 3.0 34 58 0 0x0 0 0
+ 1.18168 3 2 ack 40 ------- 1 3.0 0.0 19 68 0 0x0 0 0
- 1.18168 3 2 ack 40 ------- 1 3.0 0.0 19 68 0 0x0 0 0
r 1.19208 2 3 tcp 1040 ------- 1 0.0 3.0 35 59 0 0x0 0 0
+ 1.19208 3 2 ack 40 ------- 1 3.0 0.0 19 69 0 0x0 0 0
- 1.19208 3 2 ack 40 ------- 1 3.0 0.0 19 69 0 0x0 0 0
r 1.20248 2 3 tcp 1040 ------- 1 0.0 3.0 36 60 0 0x0 0 0
+ 1.20248 3 2 ack 40 ------- 1 3.0 0.0 19 70 0 0x0 0 0
- 1.20248 3 2 ack 40 ------- 1 3.0 0.0 19 70 0 0x0 0 0
r 1.21288 2 3 tcp 1040 ------- 1 0.0 3.0 37 61 0 0x0 0 0
+ 1.21288 3 2 ack 40 ------- 1 3.0 0.0 19 71 0 0x0 0 0
- 1.21288 3 2 ack 40 ------- 1 3.0 0.0 19 71 0 0x0 0 0
r 1.22328 2 3 tcp 1040 ------- 1 0.0 3.0 38 62 0 0x0 0 0
+ 1.22328 3 2 ack 40 ------- 1 3.0 0.0 19 72 0 0x0 0 0
- 1.22328 3 2 ack 40 ------- 1 3.0 0.0 19 72 0 0x0 0 0
r 1.23368 2 3 tcp 1040 ------- 1 0.0 3.0 39 63 0 0x0 0 0
+ 1.23368 3 2 ack 40 ------- 1 3.0 0.0 19 73 0 0x0 0 0
- 1.23368 3 2 ack 40 ------- 1 3.0 0.0 19 73 0 0x0 0 0
r 1.24408 2 3 tcp 1040 ------- 1 0.0 3.0 40 64 0 0x0 0 0
+ 1.24408 3 2 ack 40 ------- 1 3.0 0.0 19 74 0 0x0 0 0
- 1.24408 3 2 ack 40 ------- 1 3.0 0.0 19 74 0 0x0 0 0
r 1.26128 3 2 ack 40 ------- 1 3.0 0.0 19 66 0 0x0 0 0
+ 1.26128 2 0 ack 40 ------- 1 3.0 0.0 19 66 0 0x0 0 0
- 1.26128 2 0 ack 40 ------- 1 3.0 0.0 19 66 0 0x0 0 0
r 1.26132 2 0 ack 40 ------- 1 3.0 0.0 19 66 0 0x0 0 0
r 1.27168 3 2 ack 40 ------- 1 3.0 0.0 19 67 0 0x0 0 0
+ 1.27168 2 0 ack 40 ------- 1 3.0 0.0 19 67 0 0x0 0 0
- 1.27168 2 0 ack 40 ------- 1 3.0 0.0 19 67 0 0x0 0 0
r 1.27172 2 0 ack 40 ------- 1 3.0 0.0 19 67 0 0x0 0 0
r 1.28208 3 2 ack 40 ------- 1 3.0 0.0 19 68 0 0x0 0 0
+ 1.28208 2 0 ack 40 ------- 1 3.0 0.0 19 68 0 0x0 0 0
- 1.28208 2 0 ack 40 ------- 1 3.0 0.0 19 68 0 0x0 0 0
r 1.28212 2 0 ack 40 ------- 1 3.0 0.0 19 68 0 0x0 0 0
r 1.29248 3 2 ack 40 ------- 1 3.0 0.0 19 69 0 0x0 0 0
+ 1.29248 2 0 ack 40 ------- 1 3.0 0.0 19 69 0 0x0 0 0
- 1.29248 2 0 ack 40 ------- 1 3.0 0.0 19 69 0 0x0 0 0
r 1.29252 2 0 ack 40 ------- 1 3.0 0.0 19 69 0 0x0 0 0
r 1.30288 3 2 ack 40 ------- 1 3.0 0.0 19 70 0 0x0 0 0
+ 1.30288 2 0 ack 40 ------- 1 3.0 0.0 19 70 0 0x0 0 0
- 1.30288 2 0 ack 40 ------- 1 3.0 0.0 19 70 0 0x0 0 0
r 1.30292 2 0 ack 40 ------- 1 3.0 0.0 19 70 0 0x0 0 0
r 1.31328 3 2 ack 40 ------- 1 3.0 0.0 19 71 0 0x0 0 0
+ 1.31328 2 0 ack 40 ------- 1 3.0 0.0 19 71 0 0x0 0 0
- 1.31328 2 0 ack 40 ------- 1 3.0 0.0 19 71 0 0x0 0 0
r 1.31332 2 0 ack 40 ------- 1 3.0 0.0 19 71 0 0x0 0 0
r 1.32368 3 2 ack 40 ------- 1 3.0 0.0 19 72 0 0x0 0 0
+ 1.32368 2 0 ack 40 ------- 1 3.0 0.0 19 72 0 0x0 0 0
- 1.32368 2 0 ack 40 ------- 1 3.0 0.0 19 72 0 0x0 0 0
r 1.32372 2 0 ack 40 ------- 1 3.0 0.0 19 72 0 0x0 0 0
r 1.33408 3 2 ack 40 ------- 1 3.0 0.0 19 73 0 0x0 0 0
+ 1.33408 2 0 ack 40 ------- 1 3.0 0.0 19 73 0 0x0 0 0
- 1.33408 2 0 ack 40 ------- 1 3.0 0.0 19 73 0 0x0 0 0
r 1.33412 2 0 ack 40 ------- 1 3.0 0.0 19 73 0 0x0 0 0
r 1.34448 3 2 ack 40 ------- 1 3.0 0.0 19 74 0 0x0 0 0
+ 1.34448 2 0 ack 40 ------- 1 3.0 0.0 19 74 0 0x0 0 0
- 1.34448 2 0 ack 40 ------- 1 3.0 0.0 19 74 0 0x0 0 0
r 1.34452 2 0 ack 40 ------- 1 3.0 0.0 19 74 0 0x0 0 0
+ 2.1316 0 2 tcp 1040 ------- 1 0.0 3.0 20 75 0 0x0 0 0
- 2.1316 0 2 tcp 1040 ------- 1 0.0 3.0 20 75 0 0x0 0 0
r 2.13264 0 2 tcp 1040 ------- 1 0.0 3.0 20 75 0 0x0 0 0
+ 2.13264 2 3 tcp 1040 ------- 1 0.0 3.0 20 75 0 0x0 0 0
- 2.13264 2 3 tcp 1040 ------- 1 0.0 3.0 20 75 0 0x0 0 0
r 2.24304 2 3 tcp 1040 ------- 1 0.0 3.0 20 75 0 0x0 0 0
+ 2.24304 3 2 ack 40 ------- 1 3.0 0.0 20 76 0 0x0 0 0
- 2.24304 3 2 ack 40 ------- 1 3.0 0.0 20 76 0 0x0 0 0
r 2.34344 3 2 ack 40 ------- 1 3.0 0.0 20 76 0 0x0 0 0
+ 2.34344 2 0 ack 40 ------- 1 3.0 0.0 20 76 0 0x0 0 0
- 2.34344 2 0 ack 40 ------- 1 3.0 0.0 20 76 0 0x0 0 0
r 2.34348 2 0 ack 40 ------- 1 3.0 0.0 20 76 0 0x0 0 0
+ 2.34348 0 2 tcp 1040 ------- 1 0.0 3.0 21 77 0 0x0 0 0
- 2.34348 0 2 tcp 1040 ------- 1 0.0 3.0 21 77 0 0x0 0 0
+ 2.34348 0 2 tcp 1040 ------- 1 0.0 3.0 22 78 0 0x0 0 0
r 2.34452 0 2 tcp 1040 ------- 1 0.0 3.0 21 77 0 0x0 0 0
+ 2.34452 2 3 tcp 1040 ------- 1 0.0 3.0 21 77 0 0x0 0 0
- 2.34452 2 3 tcp 1040 ------- 1 0.0 3.0 21 77 0 0x0 0 0
- 2.34452 0 2 tcp 1040 ------- 1 0.0 3.0 22 78 0 0x0 0 0
r 2.34556 0 2 tcp 1040 ------- 1 0.0 3.0 22 78 0 0x0 0 0
+ 2.34556 2 3 tcp 1040 ------- 1 0.0 3.0 22 78 0 0x0 0 0
- 2.35492 2 3 tcp 1040 ------- 1 0.0 3.0 22 78 0 0x0 0 0
r 2.45492 2 3 tcp 1040 ------- 1 0.0 3.0 21 77 0 0x0 0 0
+ 2.45492 3 2 ack 40 ------- 1 3.0 0.0 21 79 0 0x0 0 0
- 2.45492 3 2 ack 40 ------- 1 3.0 0.0 21 79 0 0x0 0 0
r 2.46532 2 3 tcp 1040 ------- 1 0.0 3.0 22 78 0 0x0 0 0
+ 2.46532 3 2 ack 40 ------- 1 3.0 0.0 22 80 0 0x0 0 0
- 2.46532 3 2 ack 40 ------- 1 3.0 0.0 22 80 0 0x0 0 0
r 2.55532 3 2 ack 40 ------- 1 3.0 0.0 21 79 0 0x0 0 0
+ 2.55532 2 0 ack 40 ------- 1 3.0 0.0 21 79 0 0x0 0 0
- 2.55532 2 0 ack 40 ------- 1 3.0 0.0 21 79 0 0x0 0 0
r 2.55536 2 0 ack 40 ------- 1 3.0 0.0 21 79 0 0x0 0 0
+ 2.55536 0 2 tcp 1040 ------- 1 0.0 3.0 23 81 0 0x0 0 0
- 2.55536 0 2 tcp 1040 ------- 1 0.0 3.0 23 81 0 0x0 0 0
r 2.5564 0 2 tcp 1040 ------- 1 0.0 3.0 23 81 0 0x0 0 0
+ 2.5564 2 3 tcp 1040 ------- 1 0.0 3.0 23 81 0 0x0 0 0
- 2.5564 2 3 tcp 1040 ------- 1 0.0 3.0 23 81 0 0x0 0 0
r 2.56572 3 2 ack 40 ------- 1 3.0 0.0 22 80 0 0x0 0 0
+ 2.56572 2 0 ack 40 ------- 1 3.0 0.0 22 80 0 0x0 0 0
- 2.56572 2 0 ack 40 ------- 1 3.0 0.0 22 80 0 0x0 0 0
r 2.56576 2 0 ack 40 ------- 1 3.0 0.0 22 80 0 0x0 0 0
+ 2.56576 0 2 tcp 1040 ------- 1 0.0 3.0 24 82 0 0x0 0 0
- 2.56576 0 2 tcp 1040 ------- 1 0.0 3.0 24 82 0 0x0 0 0
r 2.5668 0 2 tcp 1040 ------- 1 0.0 3.0 24 82 0 0x0 0 0
+ 2.5668 2 3 tcp 1040 ------- 1 0.0 3.0 24 82 0 0x0 0 0
- 2.5668 2 3 tcp 1040 ------- 1 0.0 3.0 24 82 0 0x0 0 0
r 2.6668 2 3 tcp 1040 ------- 1 0.0 3.0 23 81 0 0x0 0 0
+ 2.6668 3 2 ack 40 ------- 1 3.0 0.0 23 83 0 0x0 0 0
- 2.6668 3 2 ack 40 ------- 1 3.0 0.0 23 83 0 0x0 0 0
r 2.6772 2 3 tcp 1040 ------- 1 0.0 3.0 24 82 0 0x0 0 0
+ 2.6772 3 2 ack 40 ------- 1 3.0 0.0 24 84 0 0x0 0 0
- 2.6772 3 2 ack 40 ------- 1 3.0 0.0 24 84 0 0x0 0 0
r 2.7672 3 2 ack 40 ------- 1 3.0 0.0 23 83 0 0x0 0 0
+ 2.7672 2 0 ack 40 ------- 1 3.0 0.0 23 83 0 0x0 0 0
- 2.7672 2 0 ack 40 ------- 1 3.0 0.0 23 83 0 0x0 0 0
r 2.76724 2 0 ack 40 ------- 1 3.0 0.0 23 83 0 0x0 0 0
+ 2.76724 0 2 tcp 1040 ------- 1 0.0 3.0 25 85 0 0x0 0 0
- 2.76724 0 2 tcp 1040 ------- 1 0.0 3.0 25 85 0 0x0 0 0
+ 2.76724 0 2 tcp 1040 ------- 1 0.0 3.0 26 86 0 0x0 0 0
r 2.76828 0 2 tcp 1040 ------- 1 0.0 3.0 25 85 0 0x0 0 0
+ 2.76828 2 3 tcp 1040 ------- 1 0.0 3.0 25 85 0 0x0 0 0
- 2.76828 2 3 tcp 1040 ------- 1 0.0 3.0 25 85 0 0x0 0 0
- 2.76828 0 2 tcp 1040 ------- 1 0.0 3.0 26 86 0 0x0 0 0
r 2.76932 0 2 tcp 1040 ------- 1 0.0 3.0 26 86 0 0x0 0 0
+ 2.76932 2 3 tcp 1040 ------- 1 0.0 3.0 26 86 0 0x0 0 0
r 2.7776 3 2 ack 40 ------- 1 3.0 0.0 24 84 0 0x0 0 0
+ 2.7776 2 0 ack 40 ------- 1 3.0 0.0 24 84 0 0x0 0 0
- 2.7776 2 0 ack 40 ------- 1 3.0 0.0 24 84 0 0x0 0 0
r 2.77764 2 0 ack 40 ------- 1 3.0 0.0 24 84 0 0x0 0 0
+ 2.77764 0 2 tcp 1040 ------- 1 0.0 3.0 27 87 0 0x0 0 0
- 2.77764 0 2 tcp 1040 ------- 1 0.0 3.0 27 87 0 0x0 0 0
- 2.77868 2 3 tcp 1040 ------- 1 0.0 3.0 26 86 0 0x0 0 0
r 2.77868 0 2 tcp 1040 ------- 1 0.0 3.0 27 87 0 0x0 0 0
+ 2.77868 2 3 tcp 1040 ------- 1 0.0 3.0 27 87 0 0x0 0 0
- 2.78908 2 3 tcp 1040 ------- 1 0.0 3.0 27 87 0 0x0 0 0
r 2.87868 2 3 tcp 1040 ------- 1 0.0 3.0 25 85 0 0x0 0 0
+ 2.87868 3 2 ack 40 ------- 1 3.0 0.0 25 88 0 0x0 0 0
- 2.87868 3 2 ack 40 ------- 1 3.0 0.0 25 88 0 0x0 0 0
r 2.88908 2 3 tcp 1040 ------- 1 0.0 3.0 26 86 0 0x0 0 0
+ 2.88908 3 2 ack 40 ------- 1 3.0 0.0 30 89 0 0x0 0 0
- 2.88908 3 2 ack 40 ------- 1 3.0 0.0 30 89 0 0x0 0 0
r 2.89948 2 3 tcp 1040 ------- 1 0.0 3.0 27 87 0 0x0 0 0
+ 2.89948 3 2 ack 40 ------- 1 3.0 0.0 30 90 0 0x0 0 0
- 2.89948 3 2 ack 40 ------- 1 3.0 0.0 30 90 0 0x0 0 0
r 2.97908 3 2 ack 40 ------- 1 3.0 0.0 25 88 0 0x0 0 0
+ 2.97908 2 0 ack 40 ------- 1 3.0 0.0 25 88 0 0x0 0 0
- 2.97908 2 0 ack 40 ------- 1 3.0 0.0 25 88 0 0x0 0 0
r 2.97912 2 0 ack 40 ------- 1 3.0 0.0 25 88 0 0x0 0 0
+ 2.97912 0 2 tcp 1040 ------- 1 0.0 3.0 28 91 0 0x0 0 0
- 2.97912 0 2 tcp 1040 ------- 1 0.0 3.0 28 91 0 0x0 0 0
r 2.98016 0 2 tcp 1040 ------- 1 0.0 3.0 28 91 0 0x0 0 0
+ 2.98016 2 3 tcp 1040 ------- 1 0.0 3.0 28 91 0 0x0 0 0
- 2.98016 2 3 tcp 1040 ------- 1 0.0 3.0 28 91 0 0x0 0 0
r 2.98948 3 2 ack 40 ------- 1 3.0 0.0 30 89 0 0x0 0 0
+ 2.98948 2 0 ack 40 ------- 1 3.0 0.0 30 89 0 0x0 0 0
- 2.98948 2 0 ack 40 ------- 1 3.0 0.0 30 89 0 0x0 0 0
r 2.98952 2 0 ack 40 ------- 1 3.0 0.0 30 89 0 0x0 0 0
+ 2.98952 0 2 tcp 1040 ------- 1 0.0 3.0 31 92 0 0x0 0 0
- 2.98952 0 2 tcp 1040 ------- 1 0.0 3.0 31 92 0 0x0 0 0
+ 2.98952 0 2 tcp 1040 ------- 1 0.0 3.0 32 93 0 0x0 0 0
+ 2.98952 0 2 tcp 1040 ------- 1 0.0 3.0 33 94 0 0x0 0 0
+ 2.98952 0 2 tcp 1040 ------- 1 0.0 3.0 34 95 0 0x0 0 0
r 2.99056 0 2 tcp 1040 ------- 1 0.0 3.0 31 92 0 0x0 0 0
+ 2.99056 2 3 tcp 1040 ------- 1 0.0 3.0 31 92 0 0x0 0 0
- 2.99056 2 3 tcp 1040 ------- 1 0.0 3.0 31 92 0 0x0 0 0
- 2.99056 0 2 tcp 1040 ------- 1 0.0 3.0 32 93 0 0x0 0 0
r 2.9916 0 2 tcp 1040 ------- 1 0.0 3.0 32 93 0 0x0 0 0
+ 2.9916 2 3 tcp 1040 ------- 1 0.0 3.0 32 93 0 0x0 0 0