s 82.557023746 _2_ AGT  --- 0 cbr 512 [0 0 0 0] [energy 0.455000 ei 0.000 es 0.000 et 0.000 er 0.000] ------- [2:0 3:0 32 0] [0] 0 2
s 82.557138746 _2_ MAC  --- 0 AODV 100 [0 ffffffff 2 800] [energy 0.455000 ei 0.000 es 0.000 et 0.000 er 0.000] ------- [2:255 -1:255 30 0] [0x2 1 1 [3 0] [2 4]] (REQUEST)
N -t 82.557139 -n 4 -e 0.454760
N -t 82.557139 -n 0 -e 0.454760
N -t 82.557139 -n 1 -e 0.454760
N -t 82.557140 -n 3 -e 0.454760
r 82.557938941 _4_ MAC  --- 0 AODV 48 [0 ffffffff 2 800] [energy 0.454760 ei 0.000 es 0.000 et 0.000 er 0.000] ------- [2:255 -1:255 30 0] [0x2 1 1 [3 0] [2 4]] (REQUEST)
r 82.557939030 _0_ MAC  --- 0 AODV 48 [0 ffffffff 2 800] [energy 0.454760 ei 0.000 es 0.000 et 0.000 er 0.000] ------- [2:255 -1:255 30 0] [0x2 1 1 [3 0] [2 4]] (REQUEST)
r 82.557939491 _1_ MAC  --- 0 AODV 48 [0 ffffffff 2 800] [energy 0.454760 ei 0.000 es 0.000 et 0.000 er 0.000] ------- [2:255 -1:255 30 0] [0x2 1 1 [3 0] [2 4]] (REQUEST)
s 82.559080168 _4_ MAC  --- 0 AODV 100 [0 ffffffff 4 800] [energy 0.454760 ei 0.000 es 0.000 et 0.000 er 0.000] ------- [4:255 -1:255 29 0] [0x2 2 1 [3 0] [2 4]] (REQUEST)
N -t 82.559080 -n 2 -e 0.454280
N -t 82.559081 -n 0 -e 0.454520
N -t 82.559081 -n 1 -e 0.454520
N -t 82.559081 -n 3 -e 0.454520
r 82.559880362 _2_ MAC  --- 0 AODV 48 [0 ffffffff 4 800] [energy 0.454280 ei 0.000 es 0.000 et 0.000 er 0.000] ------- [4:255 -1:255 29 0] [0x2 2 1 [3 0] [2 4]] (REQUEST)
r 82.559880622 _0_ MAC  --- 0 AODV 48 [0 ffffffff 4 800] [energy 0.454520 ei 0.000 es 0.000 et 0.000 er 0.000] ------- [4:255 -1:255 29 0] [0x2 2 1 [3 0] [2 4]] (REQUEST)
s 82.562690764 _0_ MAC  --- 0 AODV 100 [0 ffffffff 0 800] [energy 0.454520 ei 0.000 es 0.000 et 0.000 er 0.000] ------- [0:255 -1:255 29 0] [0x2 2 1 [3 0] [2 4]] (REQUEST)
N -t 82.562691 -n 2 -e 0.454040
N -t 82.562691 -n 4 -e 0.454040
N -t 82.562691 -n 1 -e 0.454280
N -t 82.562692 -n 3 -e 0.454280
r 82.563491047 _2_ MAC  --- 0 AODV 48 [0 ffffffff 0 800] [energy 0.454040 ei 0.000 es 0.000 et 0.000 er 0.000] ------- [0:255 -1:255 29 0] [0x2 2 1 [3 0] [2 4]] (REQUEST)
r 82.563491218 _4_ MAC  --- 0 AODV 48 [0 ffffffff 0 800] [energy 0.454040 ei 0.000 es 0.000 et 0.000 er 0.000] ------- [0:255 -1:255 29 0] [0x2 2 1 [3 0] [2 4]] (REQUEST)
r 82.563491353 _1_ MAC  --- 0 AODV 48 [0 ffffffff 0 800] [energy 0.454280 ei 0.000 es 0.000 et 0.000 er 0.001] ------- [0:255 -1:255 29 0] [0x2 2 1 [3 0] [2 4]] (REQUEST)
s 82.566291045 _1_ MAC  --- 0 AODV 100 [0 ffffffff 1 800] [energy 0.454280 ei 0.000 es 0.000 et 0.000 er 0.001] ------- [1:255 -1:255 29 0] [0x2 2 1 [3 0] [2 4]] (REQUEST)
N -t 82.566292 -n 0 -e 0.453800
N -t 82.566292 -n 3 -e 0.454040
N -t 82.566292 -n 2 -e 0.453800
N -t 82.566292 -n 4 -e 0.453800
r 82.567091635 _0_ MAC  --- 0 AODV 48 [0 ffffffff 1 800] [energy 0.453800 ei 0.000 es 0.000 et 0.000 er 0.001] ------- [1:255 -1:255 29 0] [0x2 2 1 [3 0] [2 4]] (REQUEST)
r 82.567091674 _3_ MAC  --- 0 AODV 48 [0 ffffffff 1 800] [energy 0.454040 ei 0.000 es 0.000 et 0.000 er 0.001] ------- [1:255 -1:255 29 0] [0x2 2 1 [3 0] [2 4]] (REQUEST)
r 82.567091789 _2_ MAC  --- 0 AODV 48 [0 ffffffff 1 800] [energy 0.453800 ei 0.000 es 0.000 et 0.000 er 0.001] ------- [1:255 -1:255 29 0] [0x2 2 1 [3 0] [2 4]] (REQUEST)
s 82.567211674 _3_ MAC  --- 0 ARP 80 [0 ffffffff 3 806] [energy 0.454040 ei 0.000 es 0.000 et 0.000 er 0.001] ------- [REQUEST 3/3 0/1]
N -t 82.567212 -n 1 -e 0.453608
N -t 82.567213 -n 2 -e 0.453608
N -t 82.567213 -n 0 -e 0.453608
N -t 82.567213 -n 4 -e 0.453608
r 82.567852303 _1_ MAC  --- 0 ARP 28 [0 ffffffff 3 806] [energy 0.453608 ei 0.000 es 0.000 et 0.000 er 0.001] ------- [REQUEST 3/3 0/1]
s 82.568082303 _1_ MAC  --- 0 RTS 44 [4fe 3 1 0] [energy 0.453608 ei 0.000 es 0.000 et 0.000 er 0.001] 
N -t 82.568083 -n 0 -e 0.453502
N -t 82.568083 -n 3 -e 0.453550
N -t 82.568083 -n 2 -e 0.453502
N -t 82.568083 -n 4 -e 0.453502
r 82.568434932 _3_ MAC  --- 0 RTS 44 [4fe 3 1 0] [energy 0.453550 ei 0.000 es 0.000 et 0.000 er 0.001] 
s 82.568444932 _3_ MAC  --- 0 CTS 38 [3c4 1 0 0] [energy 0.453550 ei 0.000 es 0.000 et 0.000 er 0.001] 
N -t 82.568446 -n 1 -e 0.453306
N -t 82.568446 -n 2 -e 0.453411
N -t 82.568446 -n 0 -e 0.453411
N -t 82.568446 -n 4 -e 0.453411
r 82.568749562 _1_ MAC  --- 0 CTS 38 [3c4 1 0 0] [energy 0.453306 ei 0.000 es 0.000 et 0.001 er 0.001] 
s 82.568759562 _1_ MAC  --- 0 ARP 80 [13a 3 1 806] [energy 0.453306 ei 0.000 es 0.000 et 0.001 er 0.001] ------- [REPLY 1/1 3/3]
N -t 82.568760 -n 0 -e 0.453219
N -t 82.568760 -n 3 -e 0.453176
N -t 82.568760 -n 2 -e 0.453219
N -t 82.568760 -n 4 -e 0.453219
r 82.569400191 _3_ MAC  --- 0 ARP 28 [13a 3 1 806] [energy 0.453176 ei 0.000 es 0.000 et 0.001 er 0.001] ------- [REPLY 1/1 3/3]
s 82.569410191 _3_ MAC  --- 0 ACK 38 [0 1 0 0] [energy 0.453176 ei 0.000 es 0.000 et 0.001 er 0.001] 
N -t 82.569411 -n 1 -e 0.452830
N -t 82.569411 -n 2 -e 0.453128
N -t 82.569411 -n 0 -e 0.453128
N -t 82.569411 -n 4 -e 0.453128
r 82.569714820 _1_ MAC  --- 0 ACK 38 [0 1 0 0] [energy 0.452830 ei 0.000 es 0.000 et 0.001 er 0.001] 
s 82.570124191 _3_ MAC  --- 0 RTS 44 [57e 1 3 0] [energy 0.452994 ei 0.000 es 0.000 et 0.001 er 0.001] 
N -t 82.570125 -n 1 -e 0.452725
N -t 82.570125 -n 2 -e 0.453022
N -t 82.570125 -n 0 -e 0.453022
N -t 82.570125 -n 4 -e 0.453022
r 82.570476820 _1_ MAC  --- 0 RTS 44 [57e 1 3 0] [energy 0.452725 ei 0.000 es 0.000 et 0.001 er 0.001] 
s 82.570486820 _1_ MAC  --- 0 CTS 38 [444 3 0 0] [energy 0.452725 ei 0.000 es 0.000 et 0.001 er 0.001] 
N -t 82.570487 -n 0 -e 0.452931
N -t 82.570487 -n 3 -e 0.452691
N -t 82.570488 -n 2 -e 0.452931
N -t 82.570488 -n 4 -e 0.452931
r 82.570791449 _3_ MAC  --- 0 CTS 38 [444 3 0 0] [energy 0.452691 ei 0.000 es 0.000 et 0.001 er 0.001] 
s 82.570801449 _3_ MAC  --- 0 AODV 96 [13a 1 3 800] [energy 0.452691 ei 0.000 es 0.000 et 0.001 er 0.001] ------- [3:255 2:255 30 1] [0x4 1 [3 4] 10.000000] (REPLY)
N -t 82.570802 -n 1 -e 0.452312
N -t 82.570803 -n 2 -e 0.452701
N -t 82.570803 -n 0 -e 0.452701
N -t 82.570803 -n 4 -e 0.452701
r 82.571570078 _1_ MAC  --- 0 AODV 44 [13a 1 3 800] [energy 0.452312 ei 0.000 es 0.000 et 0.001 er 0.001] ------- [3:255 2:255 30 1] [0x4 1 [3 4] 10.000000] (REPLY)
s 82.571580078 _1_ MAC  --- 0 ACK 38 [0 3 0 0] [energy 0.452312 ei 0.000 es 0.000 et 0.001 er 0.001] 
N -t 82.571581 -n 0 -e 0.452610
N -t 82.571581 -n 3 -e 0.452139
N -t 82.571581 -n 2 -e 0.452610
N -t 82.571581 -n 4 -e 0.452610
r 82.571884707 _3_ MAC  --- 0 ACK 38 [0 3 0 0] [energy 0.452139 ei 0.000 es 0.000 et 0.001 er 0.001] 
s 82.572294078 _1_ MAC  --- 0 ARP 80 [0 ffffffff 1 806] [energy 0.452130 ei 0.000 es 0.000 et 0.001 er 0.001] ------- [REQUEST 1/1 0/2]
N -t 82.572295 -n 0 -e 0.452418
N -t 82.572295 -n 3 -e 0.451947
N -t 82.572295 -n 2 -e 0.452418
N -t 82.572295 -n 4 -e 0.452418
r 82.572934668 _0_ MAC  --- 0 ARP 28 [0 ffffffff 1 806] [energy 0.452418 ei 0.000 es 0.000 et 0.000 er 0.002] ------- [REQUEST 1/1 0/2]
r 82.572934707 _3_ MAC  --- 0 ARP 28 [0 ffffffff 1 806] [energy 0.451947 ei 0.000 es 0.000 et 0.001 er 0.002] ------- [REQUEST 1/1 0/2]
r 82.572934822 _2_ MAC  --- 0 ARP 28 [0 ffffffff 1 806] [energy 0.452418 ei 0.000 es 0.000 et 0.000 er 0.002] ------- [REQUEST 1/1 0/2]
s 82.573469822 _2_ MAC  --- 0 RTS 44 [4fe 1 2 0] [energy 0.452418 ei 0.000 es 0.000 et 0.000 er 0.002] 
N -t 82.573470 -n 4 -e 0.452312
N -t 82.573470 -n 0 -e 0.452312
N -t 82.573471 -n 1 -e 0.451640
N -t 82.573471 -n 3 -e 0.451842
r 82.573822567 _1_ MAC  --- 0 RTS 44 [4fe 1 2 0] [energy 0.451640 ei 0.000 es 0.000 et 0.002 er 0.002] 
s 82.573832567 _1_ MAC  --- 0 CTS 38 [3c4 2 0 0] [energy 0.451640 ei 0.000 es 0.000 et 0.002 er 0.002] 
N -t 82.573833 -n 0 -e 0.452221
N -t 82.573833 -n 3 -e 0.451750
N -t 82.573833 -n 2 -e 0.452115
N -t 82.573834 -n 4 -e 0.452221
r 82.574137311 _2_ MAC  --- 0 CTS 38 [3c4 2 0 0] [energy 0.452115 ei 0.000 es 0.000 et 0.001 er 0.002] 
s 82.574147311 _2_ MAC  --- 0 ARP 80 [13a 1 2 806] [energy 0.452115 ei 0.000 es 0.000 et 0.001 er 0.002] ------- [REPLY 2/2 1/1]
N -t 82.574148 -n 4 -e 0.452029
N -t 82.574148 -n 0 -e 0.452029
N -t 82.574148 -n 1 -e 0.451266
N -t 82.574148 -n 3 -e 0.451558
r 82.574788055 _1_ MAC  --- 0 ARP 28 [13a 1 2 806] [energy 0.451266 ei 0.000 es 0.000 et 0.002 er 0.002] ------- [REPLY 2/2 1/1]
s 82.574798055 _1_ MAC  --- 0 ACK 38 [0 2 0 0] [energy 0.451266 ei 0.000 es 0.000 et 0.002 er 0.002] 
N -t 82.574799 -n 0 -e 0.451938
N -t 82.574799 -n 3 -e 0.451467
N -t 82.574799 -n 2 -e 0.451640
N -t 82.574799 -n 4 -e 0.451938
r 82.575102800 _2_ MAC  --- 0 ACK 38 [0 2 0 0] [energy 0.451640 ei 0.000 es 0.000 et 0.001 er 0.002] 
s 82.575492055 _1_ MAC  --- 0 RTS 44 [57e 2 1 0] [energy 0.451083 ei 0.000 es 0.000 et 0.002 er 0.002] 
N -t 82.575493 -n 0 -e 0.451832
N -t 82.575493 -n 3 -e 0.451362
N -t 82.575493 -n 2 -e 0.451534
N -t 82.575493 -n 4 -e 0.451832
r 82.575844800 _2_ MAC  --- 0 RTS 44 [57e 2 1 0] [energy 0.451534 ei 0.000 es 0.000 et 0.001 er 0.002] 
s 82.575854800 _2_ MAC  --- 0 CTS 38 [444 1 0 0] [energy 0.451534 ei 0.000 es 0.000 et 0.001 er 0.002] 
N -t 82.575855 -n 4 -e 0.451741
N -t 82.575855 -n 0 -e 0.451741
N -t 82.575856 -n 1 -e 0.450781
N -t 82.575856 -n 3 -e 0.451270
r 82.576159544 _1_ MAC  --- 0 CTS 38 [444 1 0 0] [energy 0.450781 ei 0.000 es 0.000 et 0.002 er 0.002] 
s 82.576169544 _1_ MAC  --- 0 AODV 96 [13a 2 1 800] [energy 0.450781 ei 0.000 es 0.000 et 0.002 er 0.002] ------- [3:255 2:255 29 2] [0x4 2 [3 4] 10.000000] (REPLY)
N -t 82.576170 -n 0 -e 0.451510
N -t 82.576170 -n 3 -e 0.451040
N -t 82.576170 -n 2 -e 0.451122
N -t 82.576170 -n 4 -e 0.451510
r 82.576938288 _2_ MAC  --- 0 AODV 44 [13a 2 1 800] [energy 0.451122 ei 0.000 es 0.000 et 0.001 er 0.003] ------- [3:255 2:255 29 2] [0x4 2 [3 4] 10.000000] (REPLY)
s 82.576948288 _2_ MAC  --- 0 ACK 38 [0 1 0 0] [energy 0.451122 ei 0.000 es 0.000 et 0.001 er 0.003] 
N -t 82.576948 -n 4 -e 0.451419
N -t 82.576949 -n 0 -e 0.451419
N -t 82.576949 -n 1 -e 0.450229
N -t 82.576949 -n 3 -e 0.450949
r 82.577253033 _1_ MAC  --- 0 ACK 38 [0 1 0 0] [energy 0.450229 ei 0.000 es 0.000 et 0.003 er 0.002] 
s 82.577502288 _2_ MAC  --- 0 RTS 44 [14be 1 2 0] [energy 0.450939 ei 0.000 es 0.000 et 0.001 er 0.003] 
N -t 82.577502 -n 4 -e 0.451314
N -t 82.577503 -n 0 -e 0.451314
N -t 82.577503 -n 1 -e 0.450123
N -t 82.577503 -n 3 -e 0.450843
r 82.577855033 _1_ MAC  --- 0 RTS 44 [14be 1 2 0] [energy 0.450123 ei 0.000 es 0.000 et 0.003 er 0.002] 
s 82.577865033 _1_ MAC  --- 0 CTS 38 [1384 2 0 0] [energy 0.450123 ei 0.000 es 0.000 et 0.003 er 0.002] 
N -t 82.577866 -n 0 -e 0.451222
N -t 82.577866 -n 3 -e 0.450752
N -t 82.577866 -n 2 -e 0.450637
N -t 82.577866 -n 4 -e 0.451222
r 82.578169777 _2_ MAC  --- 0 CTS 38 [1384 2 0 0] [energy 0.450637 ei 0.000 es 0.000 et 0.002 er 0.003] 
s 82.578179777 _2_ MAC  --- 0 cbr 584 [13a 1 2 800] [energy 0.450637 ei 0.000 es 0.000 et 0.002 er 0.003] ------- [2:0 3:0 30 1] [0] 0 2
N -t 82.578180 -n 4 -e 0.449821
N -t 82.578180 -n 0 -e 0.449821
N -t 82.578181 -n 1 -e 0.448539
N -t 82.578181 -n 3 -e 0.449350
r 82.582852521 _1_ MAC  --- 0 cbr 532 [13a 1 2 800] [energy 0.448539 ei 0.000 es 0.000 et 0.003 er 0.003] ------- [2:0 3:0 30 1] [0] 1 2
s 82.582862521 _1_ MAC  --- 0 ACK 38 [0 2 0 0] [energy 0.448539 ei 0.000 es 0.000 et 0.003 er 0.003] 
N -t 82.582863 -n 0 -e 0.449730
N -t 82.582863 -n 3 -e 0.449259
N -t 82.582863 -n 2 -e 0.447742
N -t 82.582863 -n 4 -e 0.449730
r 82.583167266 _2_ MAC  --- 0 ACK 38 [0 2 0 0] [energy 0.447742 ei 0.000 es 0.000 et 0.004 er 0.003] 
s 82.583256521 _1_ MAC  --- 0 RTS 44 [14be 3 1 0] [energy 0.448357 ei 0.000 es 0.000 et 0.003 er 0.003] 
N -t 82.583257 -n 0 -e 0.449624
N -t 82.583257 -n 3 -e 0.449154
N -t 82.583257 -n 2 -e 0.447637
N -t 82.583257 -n 4 -e 0.449624
r 82.583609150 _3_ MAC  --- 0 RTS 44 [14be 3 1 0] [energy 0.449154 ei 0.000 es 0.000 et 0.001 er 0.004] 
s 82.583619150 _3_ MAC  --- 0 CTS 38 [1384 1 0 0] [energy 0.449154 ei 0.000 es 0.000 et 0.001 er 0.004] 
N -t 82.583620 -n 1 -e 0.448054
N -t 82.583620 -n 2 -e 0.447546
N -t 82.583620 -n 0 -e 0.449533
N -t 82.583620 -n 4 -e 0.449533
r 82.583923779 _1_ MAC  --- 0 CTS 38 [1384 1 0 0] [energy 0.448054 ei 0.000 es 0.000 et 0.003 er 0.004] 
s 82.583933779 _1_ MAC  --- 0 cbr 584 [13a 3 1 800] [energy 0.448054 ei 0.000 es 0.000 et 0.003 er 0.004] ------- [2:0 3:0 29 3] [0] 1 2
N -t 82.583934 -n 0 -e 0.448131
N -t 82.583934 -n 3 -e 0.447570
N -t 82.583935 -n 2 -e 0.446144
N -t 82.583935 -n 4 -e 0.448131
r 82.588606408 _3_ MAC  --- 0 cbr 532 [13a 3 1 800] [energy 0.447570 ei 0.000 es 0.000 et 0.002 er 0.006] ------- [2:0 3:0 29 3] [0] 2 2
s 82.588616408 _3_ MAC  --- 0 ACK 38 [0 1 0 0] [energy 0.447570 ei 0.000 es 0.000 et 0.002 er 0.006] 
N -t 82.588617 -n 1 -e 0.445160
N -t 82.588617 -n 2 -e 0.446053
N -t 82.588617 -n 0 -e 0.448040
N -t 82.588618 -n 4 -e 0.448040
r 82.588631408 _3_ AGT  --- 0 cbr 532 [13a 3 1 800] [energy 0.447387 ei 0.000 es 0.000 et 0.002 er 0.006] ------- [2:0 3:0 29 3] [0] 2 2
r 82.588921038 _1_ MAC  --- 0 ACK 38 [0 1 0 0] [energy 0.445160 ei 0.000 es 0.000 et 0.006 er 0.004] 
s 83.557702901 _2_ AGT  --- 1 cbr 512 [0 0 0 0] [energy 0.446053 ei 0.000 es 0.000 et 0.004 er 0.004] ------- [2:0 3:0 32 0] [1] 0 2
s 83.557957901 _2_ MAC  --- 0 RTS 44 [14be 1 2 0] [energy 0.446053 ei 0.000 es 0.000 et 0.004 er 0.004] 
N -t 83.557958 -n 4 -e 0.447934
N -t 83.557958 -n 0 -e 0.447934
N -t 83.557959 -n 1 -e 0.445054
N -t 83.557959 -n 3 -e 0.447282
r 83.558310645 _1_ MAC  --- 0 RTS 44 [14be 1 2 0] [energy 0.445054 ei 0.000 es 0.000 et 0.006 er 0.004] 
s 83.558320645 _1_ MAC  --- 0 CTS 38 [1384 2 0 0] [energy 0.445054 ei 0.000 es 0.000 et 0.006 er 0.004] 
N -t 83.558321 -n 0 -e 0.447843
N -t 83.558321 -n 3 -e 0.447190
N -t 83.558321 -n 2 -e 0.445750
N -t 83.558322 -n 4 -e 0.447843
r 83.558625389 _2_ MAC  --- 0 CTS 38 [1384 2 0 0] [energy 0.445750 ei 0.000 es 0.000 et 0.005 er 0.005] 
s 83.558635389 _2_ MAC  --- 1 cbr 584 [13a 1 2 800] [energy 0.445750 ei 0.000 es 0.000 et 0.005 er 0.005] ------- [2:0 3:0 30 1] [1] 0 2
N -t 83.558636 -n 4 -e 0.446442
N -t 83.558636 -n 0 -e 0.446442
N -t 83.558636 -n 1 -e 0.443470
N -t 83.558636 -n 3 -e 0.445789
r 83.563308134 _1_ MAC  --- 1 cbr 532 [13a 1 2 800] [energy 0.443470 ei 0.000 es 0.000 et 0.006 er 0.005] ------- [2:0 3:0 30 1] [1] 1 2
s 83.563318134 _1_ MAC  --- 0 ACK 38 [0 2 0 0] [energy 0.443470 ei 0.000 es 0.000 et 0.006 er 0.005] 
N -t 83.563319 -n 0 -e 0.446350
N -t 83.563319 -n 3 -e 0.445698
N -t 83.563319 -n 2 -e 0.442856
N -t 83.563319 -n 4 -e 0.446350
r 83.563622878 _2_ MAC  --- 0 ACK 38 [0 2 0 0] [energy 0.442856 ei 0.000 es 0.000 et 0.007 er 0.005] 
s 83.564252134 _1_ MAC  --- 0 RTS 44 [14be 3 1 0] [energy 0.443288 ei 0.000 es 0.000 et 0.007 er 0.005] 
N -t 83.564253 -n 0 -e 0.446245
N -t 83.564253 -n 3 -e 0.445592
N -t 83.564253 -n 2 -e 0.442750
N -t 83.564253 -n 4 -e 0.446245
r 83.564604763 _3_ MAC  --- 0 RTS 44 [14be 3 1 0] [energy 0.445592 ei 0.000 es 0.000 et 0.002 er 0.008] 
s 83.564614763 _3_ MAC  --- 0 CTS 38 [1384 1 0 0] [energy 0.445592 ei 0.000 es 0.000 et 0.002 er 0.008] 
N -t 83.564615 -n 1 -e 0.442986
N -t 83.564616 -n 2 -e 0.442659
N -t 83.564616 -n 0 -e 0.446154
N -t 83.564616 -n 4 -e 0.446154
r 83.564919392 _1_ MAC  --- 0 CTS 38 [1384 1 0 0] [energy 0.442986 ei 0.000 es 0.000 et 0.007 er 0.005] 
s 83.564929392 _1_ MAC  --- 1 cbr 584 [13a 3 1 800] [energy 0.442986 ei 0.000 es 0.000 et 0.007 er 0.005] ------- [2:0 3:0 29 3] [1] 1 2
N -t 83.564930 -n 0 -e 0.444752
N -t 83.564930 -n 3 -e 0.444008
N -t 83.564930 -n 2 -e 0.441258
N -t 83.564930 -n 4 -e 0.444752
r 83.569602021 _3_ MAC  --- 1 cbr 532 [13a 3 1 800] [energy 0.444008 ei 0.000 es 0.000 et 0.002 er 0.009] ------- [2:0 3:0 29 3] [1] 2 2
s 83.569612021 _3_ MAC  --- 0 ACK 38 [0 1 0 0] [energy 0.444008 ei 0.000 es 0.000 et 0.002 er 0.009] 
N -t 83.569613 -n 1 -e 0.440091
N -t 83.569613 -n 2 -e 0.441166
N -t 83.569613 -n 0 -e 0.444661
N -t 83.569613 -n 4 -e 0.444661
r 83.569627021 _3_ AGT  --- 1 cbr 532 [13a 3 1 800] [energy 0.443826 ei 0.000 es 0.000 et 0.002 er 0.009] ------- [2:0 3:0 29 3] [1] 2 2
r 83.569916650 _1_ MAC  --- 0 ACK 38 [0 1 0 0] [energy 0.440091 ei 0.000 es 0.000 et 0.010 er 0.005] 
s 85.489934773 _2_ AGT  --- 2 cbr 512 [0 0 0 0] [energy 0.441166 ei 0.000 es 0.000 et 0.007 er 0.006] ------- [2:0 3:0 32 0] [2] 0 2
s 85.490049773 _2_ MAC  --- 0 RTS 44 [14be 1 2 0] [energy 0.441166 ei 0.000 es 0.000 et 0.007 er 0.006] 
N -t 85.490050 -n 4 -e 0.444555
N -t 85.490050 -n 0 -e 0.444555
N -t 85.490051 -n 1 -e 0.439986
N -t 85.490051 -n 3 -e 0.443720
r 85.490402518 _1_ MAC  --- 0 RTS 44 [14be 1 2 0] [energy 0.439986 ei 0.000 es 0.000 et 0.010 er 0.005] 
s 85.490412518 _1_ MAC  --- 0 CTS 38 [1384 2 0 0] [energy 0.439986 ei 0.000 es 0.000 et 0.010 er 0.005] 
N -t 85.490413 -n 0 -e 0.444464
N -t 85.490413 -n 3 -e 0.443629
N -t 85.490413 -n 2 -e 0.440864
N -t 85.490413 -n 4 -e 0.444464
r 85.490717262 _2_ MAC  --- 0 CTS 38 [1384 2 0 0] [energy 0.440864 ei 0.000 es 0.000 et 0.008 er 0.006] 
s 85.490727262 _2_ MAC  --- 2 cbr 584 [13a 1 2 800] [energy 0.440864 ei 0.000 es 0.000 et 0.008 er 0.006] ------- [2:0 3:0 30 1] [2] 0 2
N -t 85.490727 -n 4 -e 0.443062
N -t 85.490728 -n 0 -e 0.443062
N -t 85.490728 -n 1 -e 0.438402
N -t 85.490728 -n 3 -e 0.442227
r 85.495400006 _1_ MAC  --- 2 cbr 532 [13a 1 2 800] [energy 0.438402 ei 0.000 es 0.000 et 0.010 er 0.007] ------- [2:0 3:0 30 1] [2] 1 2
s 85.495410006 _1_ MAC  --- 0 ACK 38 [0 2 0 0] [energy 0.438402 ei 0.000 es 0.000 et 0.010 er 0.007] 
N -t 85.495411 -n 0 -e 0.442971
N -t 85.495411 -n 3 -e 0.442136
N -t 85.495411 -n 2 -e 0.437970
N -t 85.495411 -n 4 -e 0.442971
r 85.495714751 _2_ MAC  --- 0 ACK 38 [0 2 0 0] [energy 0.437970 ei 0.000 es 0.000 et 0.010 er 0.007] 
s 85.496064006 _1_ MAC  --- 0 RTS 44 [14be 3 1 0] [energy 0.438219 ei 0.000 es 0.000 et 0.010 er 0.007] 
N -t 85.496065 -n 0 -e 0.442866
N -t 85.496065 -n 3 -e 0.442030
N -t 85.496065 -n 2 -e 0.437864
N -t 85.496065 -n 4 -e 0.442866
r 85.496416636 _3_ MAC  --- 0 RTS 44 [14be 3 1 0] [energy 0.442030 ei 0.000 es 0.000 et 0.002 er 0.011] 
s 85.496426636 _3_ MAC  --- 0 CTS 38 [1384 1 0 0] [energy 0.442030 ei 0.000 es 0.000 et 0.002 er 0.011] 
N -t 85.496427 -n 1 -e 0.437917
N -t 85.496428 -n 2 -e 0.437773
N -t 85.496428 -n 0 -e 0.442774
N -t 85.496428 -n 4 -e 0.442774
r 85.496731265 _1_ MAC  --- 0 CTS 38 [1384 1 0 0] [energy 0.437917 ei 0.000 es 0.000 et 0.010 er 0.007] 
s 85.496741265 _1_ MAC  --- 2 cbr 584 [13a 3 1 800] [energy 0.437917 ei 0.000 es 0.000 et 0.010 er 0.007] ------- [2:0 3:0 29 3] [2] 1 2
N -t 85.496742 -n 0 -e 0.441373
N -t 85.496742 -n 3 -e 0.440446
N -t 85.496742 -n 2 -e 0.436371
N -t 85.496742 -n 4 -e 0.441373
r 85.501413894 _3_ MAC  --- 2 cbr 532 [13a 3 1 800] [energy 0.440446 ei 0.000 es 0.000 et 0.002 er 0.012] ------- [2:0 3:0 29 3] [2] 2 2
s 85.501423894 _3_ MAC  --- 0 ACK 38 [0 1 0 0] [energy 0.440446 ei 0.000 es 0.000 et 0.002 er 0.012] 
N -t 85.501425 -n 1 -e 0.435022
N -t 85.501425 -n 2 -e 0.436280
N -t 85.501425 -n 0 -e 0.441282
N -t 85.501425 -n 4 -e 0.441282
r 85.501438894 _3_ AGT  --- 2 cbr 532 [13a 3 1 800] [energy 0.440264 ei 0.000 es 0.000 et 0.003 er 0.012] ------- [2:0 3:0 29 3] [2] 2 2
r 85.501728523 _1_ MAC  --- 0 ACK 38 [0 1 0 0] [energy 0.435022 ei 0.000 es 0.000 et 0.013 er 0.007] 
s 86.972386029 _2_ AGT  --- 3 cbr 512 [0 0 0 0] [energy 0.436280 ei 0.000 es 0.000 et 0.010 er 0.008] ------- [2:0 3:0 32 0] [3] 0 2
s 86.972741029 _2_ MAC  --- 0 RTS 44 [14be 1 2 0] [energy 0.436280 ei 0.000 es 0.000 et 0.010 er 0.008] 
N -t 86.972741 -n 4 -e 0.441176
N -t 86.972741 -n 0 -e 0.441176
N -t 86.972742 -n 1 -e 0.434917
N -t 86.972742 -n 3 -e 0.440158
r 86.973093774 _1_ MAC  --- 0 RTS 44 [14be 1 2 0] [energy 0.434917 ei 0.000 es 0.000 et 0.013 er 0.007] 
s 86.973103774 _1_ MAC  --- 0 CTS 38 [1384 2 0 0] [energy 0.434917 ei 0.000 es 0.000 et 0.013 er 0.007] 
N -t 86.973104 -n 0 -e 0.441085
N -t 86.973104 -n 3 -e 0.440067
N -t 86.973105 -n 2 -e 0.435978
N -t 86.973105 -n 4 -e 0.441085
r 86.973408518 _2_ MAC  --- 0 CTS 38 [1384 2 0 0] [energy 0.435978 ei 0.000 es 0.000 et 0.011 er 0.008] 
s 86.973418518 _2_ MAC  --- 3 cbr 584 [13a 1 2 800] [energy 0.435978 ei 0.000 es 0.000 et 0.011 er 0.008] ------- [2:0 3:0 30 1] [3] 0 2
N -t 86.973419 -n 4 -e 0.439683
N -t 86.973419 -n 0 -e 0.439683
N -t 86.973419 -n 1 -e 0.433333
N -t 86.973420 -n 3 -e 0.438666
r 86.978091262 _1_ MAC  --- 3 cbr 532 [13a 1 2 800] [energy 0.433333 ei 0.000 es 0.000 et 0.013 er 0.008] ------- [2:0 3:0 30 1] [3] 1 2
s 86.978101262 _1_ MAC  --- 0 ACK 38 [0 2 0 0] [energy 0.433333 ei 0.000 es 0.000 et 0.013 er 0.008] 
N -t 86.978102 -n 0 -e 0.439592
N -t 86.978102 -n 3 -e 0.438574
N -t 86.978102 -n 2 -e 0.433083
N -t 86.978102 -n 4 -e 0.439592
r 86.978406007 _2_ MAC  --- 0 ACK 38 [0 2 0 0] [energy 0.433083 ei 0.000 es 0.000 et 0.013 er 0.008] 
s 86.978655262 _1_ MAC  --- 0 RTS 44 [14be 3 1 0] [energy 0.433150 ei 0.000 es 0.000 et 0.013 er 0.008] 
N -t 86.978656 -n 0 -e 0.439486
N -t 86.978656 -n 3 -e 0.438469
N -t 86.978656 -n 2 -e 0.432978
N -t 86.978656 -n 4 -e 0.439486
r 86.979007892 _3_ MAC  --- 0 RTS 44 [14be 3 1 0] [energy 0.438469 ei 0.000 es 0.000 et 0.003 er 0.014] 
s 86.979017892 _3_ MAC  --- 0 CTS 38 [1384 1 0 0] [energy 0.438469 ei 0.000 es 0.000 et 0.003 er 0.014] 
N -t 86.979019 -n 1 -e 0.432848
N -t 86.979019 -n 2 -e 0.432886
N -t 86.979019 -n 0 -e 0.439395
N -t 86.979019 -n 4 -e 0.439395
r 86.979322521 _1_ MAC  --- 0 CTS 38 [1384 1 0 0] [energy 0.432848 ei 0.000 es 0.000 et 0.014 er 0.009] 
s 86.979332521 _1_ MAC  --- 3 cbr 584 [13a 3 1 800] [energy 0.432848 ei 0.000 es 0.000 et 0.014 er 0.009] ------- [2:0 3:0 29 3] [3] 1 2
N -t 86.979333 -n 0 -e 0.437994
N -t 86.979333 -n 3 -e 0.436885
N -t 86.979333 -n 2 -e 0.431485
N -t 86.979333 -n 4 -e 0.437994
r 86.984005150 _3_ MAC  --- 3 cbr 532 [13a 3 1 800] [energy 0.436885 ei 0.000 es 0.000 et 0.003 er 0.015] ------- [2:0 3:0 29 3] [3] 2 2
s 86.984015150 _3_ MAC  --- 0 ACK 38 [0 1 0 0] [energy 0.436885 ei 0.000 es 0.000 et 0.003 er 0.015] 
N -t 86.984016 -n 1 -e 0.429954
N -t 86.984016 -n 2 -e 0.431394
N -t 86.984016 -n 0 -e 0.437902
N -t 86.984016 -n 4 -e 0.437902
r 86.984030150 _3_ AGT  --- 3 cbr 532 [13a 3 1 800] [energy 0.436702 ei 0.000 es 0.000 et 0.003 er 0.015] ------- [2:0 3:0 29 3] [3] 2 2
r 86.984319779 _1_ MAC  --- 0 ACK 38 [0 1 0 0] [energy 0.429954 ei 0.000 es 0.000 et 0.016 er 0.009] 
s 88.783424184 _2_ AGT  --- 4 cbr 512 [0 0 0 0] [energy 0.431394 ei 0.000 es 0.000 et 0.013 er 0.010] ------- [2:0 3:0 32 0] [4] 0 2
s 88.783699184 _2_ MAC  --- 0 RTS 44 [14be 1 2 0] [energy 0.431394 ei 0.000 es 0.000 et 0.013 er 0.010] 
N -t 88.783699 -n 4 -e 0.437797
N -t 88.783699 -n 0 -e 0.437797
N -t 88.783700 -n 1 -e 0.429848
N -t 88.783700 -n 3 -e 0.436597
r 88.784051928 _1_ MAC  --- 0 RTS 44 [14be 1 2 0] [energy 0.429848 ei 0.000 es 0.000 et 0.016 er 0.009] 
s 88.784061928 _1_ MAC  --- 0 CTS 38 [1384 2 0 0] [energy 0.429848 ei 0.000 es 0.000 et 0.016 er 0.009] 
N -t 88.784063 -n 0 -e 0.437706
N -t 88.784063 -n 3 -e 0.436506
N -t 88.784063 -n 2 -e 0.431091
N -t 88.784063 -n 4 -e 0.437706
r 88.784366672 _2_ MAC  --- 0 CTS 38 [1384 2 0 0] [energy 0.431091 ei 0.000 es 0.000 et 0.014 er 0.010] 
s 88.784376672 _2_ MAC  --- 4 cbr 584 [13a 1 2 800] [energy 0.431091 ei 0.000 es 0.000 et 0.014 er 0.010] ------- [2:0 3:0 30 1] [4] 0 2
N -t 88.784377 -n 4 -e 0.436304
N -t 88.784377 -n 0 -e 0.436304
N -t 88.784377 -n 1 -e 0.428264
N -t 88.784378 -n 3 -e 0.435104
r 88.789049417 _1_ MAC  --- 4 cbr 532 [13a 1 2 800] [energy 0.428264 ei 0.000 es 0.000 et 0.017 er 0.010] ------- [2:0 3:0 30 1] [4] 1 2
s 88.789059417 _1_ MAC  --- 0 ACK 38 [0 2 0 0] [energy 0.428264 ei 0.000 es 0.000 et 0.017 er 0.010] 
N -t 88.789060 -n 0 -e 0.436213
N -t 88.789060 -n 3 -e 0.435013
N -t 88.789060 -n 2 -e 0.428197
N -t 88.789060 -n 4 -e 0.436213
r 88.789364161 _2_ MAC  --- 0 ACK 38 [0 2 0 0] [energy 0.428197 ei 0.000 es 0.000 et 0.017 er 0.010] 
s 88.789993417 _1_ MAC  --- 0 RTS 44 [14be 3 1 0] [energy 0.428082 ei 0.000 es 0.000 et 0.017 er 0.010] 
N -t 88.789994 -n 0 -e 0.436107
N -t 88.789994 -n 3 -e 0.434907
N -t 88.789994 -n 2 -e 0.428091
N -t 88.789994 -n 4 -e 0.436107
r 88.790346046 _3_ MAC  --- 0 RTS 44 [14be 3 1 0] [energy 0.434907 ei 0.000 es 0.000 et 0.003 er 0.017] 
s 88.790356046 _3_ MAC  --- 0 CTS 38 [1384 1 0 0] [energy 0.434907 ei 0.000 es 0.000 et 0.003 er 0.017] 
N -t 88.790357 -n 1 -e 0.427779
N -t 88.790357 -n 2 -e 0.428000
N -t 88.790357 -n 0 -e 0.436016
N -t 88.790357 -n 4 -e 0.436016
r 88.790660675 _1_ MAC  --- 0 CTS 38 [1384 1 0 0] [energy 0.427779 ei 0.000 es 0.000 et 0.017 er 0.010] 
s 88.790670675 _1_ MAC  --- 4 cbr 584 [13a 3 1 800] [energy 0.427779 ei 0.000 es 0.000 et 0.017 er 0.010] ------- [2:0 3:0 29 3] [4] 1 2
N -t 88.790671 -n 0 -e 0.434614
N -t 88.790671 -n 3 -e 0.433323
N -t 88.790671 -n 2 -e 0.426598
N -t 88.790672 -n 4 -e 0.434614
r 88.795343304 _3_ MAC  --- 4 cbr 532 [13a 3 1 800] [energy 0.433323 ei 0.000 es 0.000 et 0.003 er 0.019] ------- [2:0 3:0 29 3] [4] 2 2
s 88.795353304 _3_ MAC  --- 0 ACK 38 [0 1 0 0] [energy 0.433323 ei 0.000 es 0.000 et 0.003 er 0.019] 
N -t 88.795354 -n 1 -e 0.424885
N -t 88.795354 -n 2 -e 0.426507
N -t 88.795354 -n 0 -e 0.434523
N -t 88.795355 -n 4 -e 0.434523
r 88.795368304 _3_ AGT  --- 4 cbr 532 [13a 3 1 800] [energy 0.433141 ei 0.000 es 0.000 et 0.003 er 0.019] ------- [2:0 3:0 29 3] [4] 2 2
r 88.795657933 _1_ MAC  --- 0 ACK 38 [0 1 0 0] [energy 0.424885 ei 0.000 es 0.000 et 0.020 er 0.010] 
s 91.675954090 _2_ AGT  --- 5 cbr 512 [0 0 0 0] [energy 0.426507 ei 0.000 es 0.000 et 0.017 er 0.012] ------- [2:0 3:0 32 0] [5] 0 2
s 91.676529090 _2_ MAC  --- 0 RTS 44 [14be 1 2 0] [energy 0.426507 ei 0.000 es 0.000 et 0.017 er 0.012] 
N -t 91.676529 -n 4 -e 0.434418
N -t 91.676529 -n 0 -e 0.434418
N -t 91.676530 -n 1 -e 0.424779
N -t 91.676530 -n 3 -e 0.433035
r 91.676881835 _1_ MAC  --- 0 RTS 44 [14be 1 2 0] [energy 0.424779 ei 0.000 es 0.000 et 0.020 er 0.010] 
s 91.676891835 _1_ MAC  --- 0 CTS 38 [1384 2 0 0] [energy 0.424779 ei 0.000 es 0.000 et 0.020 er 0.010] 
N -t 91.676892 -n 0 -e 0.434326
N -t 91.676892 -n 3 -e 0.432944
N -t 91.676893 -n 2 -e 0.426205
N -t 91.676893 -n 4 -e 0.434326
r 91.677196579 _2_ MAC  --- 0 CTS 38 [1384 2 0 0] [energy 0.426205 ei 0.000 es 0.000 et 0.017 er 0.012] 
s 91.677206579 _2_ MAC  --- 5 cbr 584 [13a 1 2 800] [energy 0.426205 ei 0.000 es 0.000 et 0.017 er 0.012] ------- [2:0 3:0 30 1] [5] 0 2
N -t 91.677207 -n 4 -e 0.432925
N -t 91.677207 -n 0 -e 0.432925
N -t 91.677207 -n 1 -e 0.423195
N -t 91.677208 -n 3 -e 0.431542
r 91.681879323 _1_ MAC  --- 5 cbr 532 [13a 1 2 800] [energy 0.423195 ei 0.000 es 0.000 et 0.020 er 0.012] ------- [2:0 3:0 30 1] [5] 1 2
s 91.681889323 _1_ MAC  --- 0 ACK 38 [0 2 0 0] [energy 0.423195 ei 0.000 es 0.000 et 0.020 er 0.012] 
N -t 91.681890 -n 0 -e 0.432834
N -t 91.681890 -n 3 -e 0.431451
N -t 91.681890 -n 2 -e 0.423310
N -t 91.681890 -n 4 -e 0.432834
r 91.682194068 _2_ MAC  --- 0 ACK 38 [0 2 0 0] [energy 0.423310 ei 0.000 es 0.000 et 0.020 er 0.012] 
s 91.682523323 _1_ MAC  --- 0 RTS 44 [14be 3 1 0] [energy 0.423013 ei 0.000 es 0.000 et 0.020 er 0.012] 
N -t 91.682524 -n 0 -e 0.432728
N -t 91.682524 -n 3 -e 0.431346
N -t 91.682524 -n 2 -e 0.423205
N -t 91.682524 -n 4 -e 0.432728
r 91.682875952 _3_ MAC  --- 0 RTS 44 [14be 3 1 0] [energy 0.431346 ei 0.000 es 0.000 et 0.003 er 0.020] 
s 91.682885952 _3_ MAC  --- 0 CTS 38 [1384 1 0 0] [energy 0.431346 ei 0.000 es 0.000 et 0.003 er 0.020] 
N -t 91.682887 -n 1 -e 0.422710
N -t 91.682887 -n 2 -e 0.423114
N -t 91.682887 -n 0 -e 0.432637
N -t 91.682887 -n 4 -e 0.432637
r 91.683190582 _1_ MAC  --- 0 CTS 38 [1384 1 0 0] [energy 0.422710 ei 0.000 es 0.000 et 0.020 er 0.012] 
s 91.683200582 _1_ MAC  --- 5 cbr 584 [13a 3 1 800] [energy 0.422710 ei 0.000 es 0.000 et 0.020 er 0.012] ------- [2:0 3:0 29 3] [5] 1 2
N -t 91.683201 -n 0 -e 0.431235
N -t 91.683201 -n 3 -e 0.429762
N -t 91.683201 -n 2 -e 0.421712
N -t 91.683202 -n 4 -e 0.431235
r 91.687873211 _3_ MAC  --- 5 cbr 532 [13a 3 1 800] [energy 0.429762 ei 0.000 es 0.000 et 0.003 er 0.022] ------- [2:0 3:0 29 3] [5] 2 2
s 91.687883211 _3_ MAC  --- 0 ACK 38 [0 1 0 0] [energy 0.429762 ei 0.000 es 0.000 et 0.003 er 0.022] 
N -t 91.687884 -n 1 -e 0.419816
N -t 91.687884 -n 2 -e 0.421621
N -t 91.687884 -n 0 -e 0.431144
N -t 91.687884 -n 4 -e 0.431144
r 91.687898211 _3_ AGT  --- 5 cbr 532 [13a 3 1 800] [energy 0.429579 ei 0.000 es 0.000 et 0.004 er 0.022] ------- [2:0 3:0 29 3] [5] 2 2
r 91.688187840 _1_ MAC  --- 0 ACK 38 [0 1 0 0] [energy 0.419816 ei 0.000 es 0.000 et 0.023 er 0.012] 
s 93.866008866 _2_ AGT  --- 6 cbr 512 [0 0 0 0] [energy 0.421621 ei 0.000 es 0.000 et 0.020 er 0.014] ------- [2:0 3:0 32 0] [6] 0 2
s 93.866083866 _2_ MAC  --- 0 RTS 44 [14be 1 2 0] [energy 0.421621 ei 0.000 es 0.000 et 0.020 er 0.014] 
N -t 93.866084 -n 4 -e 0.431038
N -t 93.866084 -n 0 -e 0.431038
N -t 93.866085 -n 1 -e 0.419710
N -t 93.866085 -n 3 -e 0.429474
r 93.866436610 _1_ MAC  --- 0 RTS 44 [14be 1 2 0] [energy 0.419710 ei 0.000 es 0.000 et 0.023 er 0.012] 
s 93.866446610 _1_ MAC  --- 0 CTS 38 [1384 2 0 0] [energy 0.419710 ei 0.000 es 0.000 et 0.023 er 0.012] 
N -t 93.866447 -n 0 -e 0.430947
N -t 93.866447 -n 3 -e 0.429382
N -t 93.866447 -n 2 -e 0.421318
N -t 93.866448 -n 4 -e 0.430947
r 93.866751355 _2_ MAC  --- 0 CTS 38 [1384 2 0 0] [energy 0.421318 ei 0.000 es 0.000 et 0.020 er 0.014] 
s 93.866761355 _2_ MAC  --- 6 cbr 584 [13a 1 2 800] [energy 0.421318 ei 0.000 es 0.000 et 0.020 er 0.014] ------- [2:0 3:0 30 1] [6] 0 2
N -t 93.866762 -n 4 -e 0.429546
N -t 93.866762 -n 0 -e 0.429546
N -t 93.866762 -n 1 -e 0.418126
N -t 93.866762 -n 3 -e 0.427981
r 93.871434099 _1_ MAC  --- 6 cbr 532 [13a 1 2 800] [energy 0.418126 ei 0.000 es 0.000 et 0.023 er 0.014] ------- [2:0 3:0 30 1] [6] 1 2
s 93.871444099 _1_ MAC  --- 0 ACK 38 [0 2 0 0] [energy 0.418126 ei 0.000 es 0.000 et 0.023 er 0.014] 
N -t 93.871445 -n 0 -e 0.429454
N -t 93.871445 -n 3 -e 0.427890
N -t 93.871445 -n 2 -e 0.418424
N -t 93.871445 -n 4 -e 0.429454
r 93.871748843 _2_ MAC  --- 0 ACK 38 [0 2 0 0] [energy 0.418424 ei 0.000 es 0.000 et 0.023 er 0.014] 