+ 0.8 3 2 tcp 40 ------- 0 3.0 0.0 0 0
- 0.8 3 2 tcp 40 ------- 0 3.0 0.0 0 0
r 0.850107 3 2 tcp 40 ------- 0 3.0 0.0 0 0
+ 0.850107 2 1 tcp 40 ------- 0 3.0 0.0 0 0
- 0.850107 2 1 tcp 40 ------- 0 3.0 0.0 0 0
r 1.100267 2 1 tcp 40 ------- 0 3.0 0.0 0 0
+ 1.100267 1 0 tcp 40 ------- 0 3.0 0.0 0 0
- 1.100267 1 0 tcp 40 ------- 0 3.0 0.0 0 0
r 1.110373 1 0 tcp 40 ------- 0 3.0 0.0 0 0
+ 1.110373 0 1 ack 40 ------- 0 0.0 3.0 0 1
- 1.110373 0 1 ack 40 ------- 0 0.0 3.0 0 1
r 1.12048 0 1 ack 40 ------- 0 0.0 3.0 0 1
+ 1.12048 1 2 ack 40 ------- 0 0.0 3.0 0 1
- 1.12048 1 2 ack 40 ------- 0 0.0 3.0 0 1
r 1.37208 1 2 ack 40 ------- 0 0.0 3.0 0 1
+ 1.37208 2 3 ack 40 ------- 0 0.0 3.0 0 1
- 1.37208 2 3 ack 40 ------- 0 0.0 3.0 0 1
r 1.422187 2 3 ack 40 ------- 0 0.0 3.0 0 1
+ 1.422187 3 2 tcp 1500 ------- 0 3.0 0.0 1 2
- 1.422187 3 2 tcp 1500 ------- 0 3.0 0.0 1 2
+ 1.422187 3 2 tcp 1500 ------- 0 3.0 0.0 2 3
- 1.426187 3 2 tcp 1500 ------- 0 3.0 0.0 2 3
r 1.476187 3 2 tcp 1500 ------- 0 3.0 0.0 1 2
+ 1.476187 2 1 tcp 1500 ------- 0 3.0 0.0 1 2
- 1.476187 2 1 tcp 1500 ------- 0 3.0 0.0 1 2
r 1.480187 3 2 tcp 1500 ------- 0 3.0 0.0 2 3
+ 1.480187 2 1 tcp 1500 ------- 0 3.0 0.0 2 3
- 1.482187 2 1 tcp 1500 ------- 0 3.0 0.0 2 3
r 1.732187 2 1 tcp 1500 ------- 0 3.0 0.0 1 2
+ 1.732187 1 0 tcp 1500 ------- 0 3.0 0.0 1 2
- 1.732187 1 0 tcp 1500 ------- 0 3.0 0.0 1 2
r 1.738187 2 1 tcp 1500 ------- 0 3.0 0.0 2 3
+ 1.738187 1 0 tcp 1500 ------- 0 3.0 0.0 2 3
- 1.738187 1 0 tcp 1500 ------- 0 3.0 0.0 2 3
r 1.746187 1 0 tcp 1500 ------- 0 3.0 0.0 1 2
+ 1.746187 0 1 ack 40 ------- 0 0.0 3.0 1 4
- 1.746187 0 1 ack 40 ------- 0 0.0 3.0 1 4
r 1.752187 1 0 tcp 1500 ------- 0 3.0 0.0 2 3
+ 1.752187 0 1 ack 40 ------- 0 0.0 3.0 2 5
- 1.752187 0 1 ack 40 ------- 0 0.0 3.0 2 5
r 1.756293 0 1 ack 40 ------- 0 0.0 3.0 1 4
+ 1.756293 1 2 ack 40 ------- 0 0.0 3.0 1 4
- 1.756293 1 2 ack 40 ------- 0 0.0 3.0 1 4
r 1.762293 0 1 ack 40 ------- 0 0.0 3.0 2 5
+ 1.762293 1 2 ack 40 ------- 0 0.0 3.0 2 5
- 1.762293 1 2 ack 40 ------- 0 0.0 3.0 2 5
r 2.007893 1 2 ack 40 ------- 0 0.0 3.0 1 4
+ 2.007893 2 3 ack 40 ------- 0 0.0 3.0 1 4
- 2.007893 2 3 ack 40 ------- 0 0.0 3.0 1 4
r 2.013893 1 2 ack 40 ------- 0 0.0 3.0 2 5
+ 2.013893 2 3 ack 40 ------- 0 0.0 3.0 2 5
- 2.013893 2 3 ack 40 ------- 0 0.0 3.0 2 5
r 2.058 2 3 ack 40 ------- 0 0.0 3.0 1 4
+ 2.058 3 2 tcp 1500 ------- 0 3.0 0.0 3 6
- 2.058 3 2 tcp 1500 ------- 0 3.0 0.0 3 6
+ 2.058 3 2 tcp 1500 ------- 0 3.0 0.0 4 7
- 2.062 3 2 tcp 1500 ------- 0 3.0 0.0 4 7
r 2.064 2 3 ack 40 ------- 0 0.0 3.0 2 5
+ 2.064 3 2 tcp 1500 ------- 0 3.0 0.0 5 8
+ 2.064 3 2 tcp 1500 ------- 0 3.0 0.0 6 9
- 2.066 3 2 tcp 1500 ------- 0 3.0 0.0 5 8
- 2.07 3 2 tcp 1500 ------- 0 3.0 0.0 6 9
r 2.112 3 2 tcp 1500 ------- 0 3.0 0.0 3 6
+ 2.112 2 1 tcp 1500 ------- 0 3.0 0.0 3 6
- 2.112 2 1 tcp 1500 ------- 0 3.0 0.0 3 6
r 2.116 3 2 tcp 1500 ------- 0 3.0 0.0 4 7
+ 2.116 2 1 tcp 1500 ------- 0 3.0 0.0 4 7
- 2.118 2 1 tcp 1500 ------- 0 3.0 0.0 4 7
r 2.12 3 2 tcp 1500 ------- 0 3.0 0.0 5 8
+ 2.12 2 1 tcp 1500 ------- 0 3.0 0.0 5 8
- 2.124 2 1 tcp 1500 ------- 0 3.0 0.0 5 8
r 2.124 3 2 tcp 1500 ------- 0 3.0 0.0 6 9
+ 2.124 2 1 tcp 1500 ------- 0 3.0 0.0 6 9
- 2.13 2 1 tcp 1500 ------- 0 3.0 0.0 6 9
r 2.368 2 1 tcp 1500 ------- 0 3.0 0.0 3 6
+ 2.368 1 0 tcp 1500 ------- 0 3.0 0.0 3 6
- 2.368 1 0 tcp 1500 ------- 0 3.0 0.0 3 6
r 2.374 2 1 tcp 1500 ------- 0 3.0 0.0 4 7
+ 2.374 1 0 tcp 1500 ------- 0 3.0 0.0 4 7
- 2.374 1 0 tcp 1500 ------- 0 3.0 0.0 4 7
r 2.38 2 1 tcp 1500 ------- 0 3.0 0.0 5 8
+ 2.38 1 0 tcp 1500 ------- 0 3.0 0.0 5 8
- 2.38 1 0 tcp 1500 ------- 0 3.0 0.0 5 8
r 2.382 1 0 tcp 1500 ------- 0 3.0 0.0 3 6
+ 2.382 0 1 ack 40 ------- 0 0.0 3.0 3 10
- 2.382 0 1 ack 40 ------- 0 0.0 3.0 3 10
r 2.386 2 1 tcp 1500 ------- 0 3.0 0.0 6 9
+ 2.386 1 0 tcp 1500 ------- 0 3.0 0.0 6 9
- 2.386 1 0 tcp 1500 ------- 0 3.0 0.0 6 9
r 2.388 1 0 tcp 1500 ------- 0 3.0 0.0 4 7
+ 2.388 0 1 ack 40 ------- 0 0.0 3.0 4 11
- 2.388 0 1 ack 40 ------- 0 0.0 3.0 4 11
r 2.392107 0 1 ack 40 ------- 0 0.0 3.0 3 10
+ 2.392107 1 2 ack 40 ------- 0 0.0 3.0 3 10
- 2.392107 1 2 ack 40 ------- 0 0.0 3.0 3 10
r 2.394 1 0 tcp 1500 ------- 0 3.0 0.0 5 8
+ 2.394 0 1 ack 40 ------- 0 0.0 3.0 5 12
- 2.394 0 1 ack 40 ------- 0 0.0 3.0 5 12
r 2.398107 0 1 ack 40 ------- 0 0.0 3.0 4 11
+ 2.398107 1 2 ack 40 ------- 0 0.0 3.0 4 11
- 2.398107 1 2 ack 40 ------- 0 0.0 3.0 4 11
r 2.4 1 0 tcp 1500 ------- 0 3.0 0.0 6 9
+ 2.4 0 1 ack 40 ------- 0 0.0 3.0 6 13
- 2.4 0 1 ack 40 ------- 0 0.0 3.0 6 13
r 2.404107 0 1 ack 40 ------- 0 0.0 3.0 5 12
+ 2.404107 1 2 ack 40 ------- 0 0.0 3.0 5 12
- 2.404107 1 2 ack 40 ------- 0 0.0 3.0 5 12
r 2.410107 0 1 ack 40 ------- 0 0.0 3.0 6 13
+ 2.410107 1 2 ack 40 ------- 0 0.0 3.0 6 13
- 2.410107 1 2 ack 40 ------- 0 0.0 3.0 6 13
r 2.643707 1 2 ack 40 ------- 0 0.0 3.0 3 10
+ 2.643707 2 3 ack 40 ------- 0 0.0 3.0 3 10
- 2.643707 2 3 ack 40 ------- 0 0.0 3.0 3 10
r 2.649707 1 2 ack 40 ------- 0 0.0 3.0 4 11
+ 2.649707 2 3 ack 40 ------- 0 0.0 3.0 4 11
- 2.649707 2 3 ack 40 ------- 0 0.0 3.0 4 11
r 2.655707 1 2 ack 40 ------- 0 0.0 3.0 5 12
+ 2.655707 2 3 ack 40 ------- 0 0.0 3.0 5 12
- 2.655707 2 3 ack 40 ------- 0 0.0 3.0 5 12
r 2.661707 1 2 ack 40 ------- 0 0.0 3.0 6 13
+ 2.661707 2 3 ack 40 ------- 0 0.0 3.0 6 13
- 2.661707 2 3 ack 40 ------- 0 0.0 3.0 6 13
r 2.693813 2 3 ack 40 ------- 0 0.0 3.0 3 10
+ 2.693813 3 2 tcp 1500 ------- 0 3.0 0.0 7 14
- 2.693813 3 2 tcp 1500 ------- 0 3.0 0.0 7 14
+ 2.693813 3 2 tcp 1500 ------- 0 3.0 0.0 8 15
- 2.697813 3 2 tcp 1500 ------- 0 3.0 0.0 8 15
r 2.699813 2 3 ack 40 ------- 0 0.0 3.0 4 11
+ 2.699813 3 2 tcp 1500 ------- 0 3.0 0.0 9 16
+ 2.699813 3 2 tcp 1500 ------- 0 3.0 0.0 10 17
- 2.701813 3 2 tcp 1500 ------- 0 3.0 0.0 9 16
r 2.705813 2 3 ack 40 ------- 0 0.0 3.0 5 12
+ 2.705813 3 2 tcp 1500 ------- 0 3.0 0.0 11 18
+ 2.705813 3 2 tcp 1500 ------- 0 3.0 0.0 12 19
- 2.705813 3 2 tcp 1500 ------- 0 3.0 0.0 10 17
- 2.709813 3 2 tcp 1500 ------- 0 3.0 0.0 11 18
r 2.711813 2 3 ack 40 ------- 0 0.0 3.0 6 13
+ 2.711813 3 2 tcp 1500 ------- 0 3.0 0.0 13 20
+ 2.711813 3 2 tcp 1500 ------- 0 3.0 0.0 14 21
- 2.713813 3 2 tcp 1500 ------- 0 3.0 0.0 12 19
- 2.717813 3 2 tcp 1500 ------- 0 3.0 0.0 13 20
- 2.721813 3 2 tcp 1500 ------- 0 3.0 0.0 14 21
r 2.747813 3 2 tcp 1500 ------- 0 3.0 0.0 7 14
+ 2.747813 2 1 tcp 1500 ------- 0 3.0 0.0 7 14
- 2.747813 2 1 tcp 1500 ------- 0 3.0 0.0 7 14
r 2.751813 3 2 tcp 1500 ------- 0 3.0 0.0 8 15
+ 2.751813 2 1 tcp 1500 ------- 0 3.0 0.0 8 15
- 2.753813 2 1 tcp 1500 ------- 0 3.0 0.0 8 15
r 2.755813 3 2 tcp 1500 ------- 0 3.0 0.0 9 16
+ 2.755813 2 1 tcp 1500 ------- 0 3.0 0.0 9 16
- 2.759813 2 1 tcp 1500 ------- 0 3.0 0.0 9 16
r 2.759813 3 2 tcp 1500 ------- 0 3.0 0.0 10 17
+ 2.759813 2 1 tcp 1500 ------- 0 3.0 0.0 10 17
r 2.763813 3 2 tcp 1500 ------- 0 3.0 0.0 11 18
+ 2.763813 2 1 tcp 1500 ------- 0 3.0 0.0 11 18
- 2.765813 2 1 tcp 1500 ------- 0 3.0 0.0 10 17
r 2.767813 3 2 tcp 1500 ------- 0 3.0 0.0 12 19
+ 2.767813 2 1 tcp 1500 ------- 0 3.0 0.0 12 19
- 2.771813 2 1 tcp 1500 ------- 0 3.0 0.0 11 18
r 2.771813 3 2 tcp 1500 ------- 0 3.0 0.0 13 20
+ 2.771813 2 1 tcp 1500 ------- 0 3.0 0.0 13 20
r 2.775813 3 2 tcp 1500 ------- 0 3.0 0.0 14 21
+ 2.775813 2 1 tcp 1500 ------- 0 3.0 0.0 14 21
- 2.777813 2 1 tcp 1500 ------- 0 3.0 0.0 12 19
- 2.783813 2 1 tcp 1500 ------- 0 3.0 0.0 13 20
- 2.789813 2 1 tcp 1500 ------- 0 3.0 0.0 14 21
r 3.003813 2 1 tcp 1500 ------- 0 3.0 0.0 7 14
+ 3.003813 1 0 tcp 1500 ------- 0 3.0 0.0 7 14
- 3.003813 1 0 tcp 1500 ------- 0 3.0 0.0 7 14
r 3.009813 2 1 tcp 1500 ------- 0 3.0 0.0 8 15
+ 3.009813 1 0 tcp 1500 ------- 0 3.0 0.0 8 15
- 3.009813 1 0 tcp 1500 ------- 0 3.0 0.0 8 15
r 3.015813 2 1 tcp 1500 ------- 0 3.0 0.0 9 16
+ 3.015813 1 0 tcp 1500 ------- 0 3.0 0.0 9 16
- 3.015813 1 0 tcp 1500 ------- 0 3.0 0.0 9 16
r 3.017813 1 0 tcp 1500 ------- 0 3.0 0.0 7 14
+ 3.017813 0 1 ack 40 ------- 0 0.0 3.0 7 22
- 3.017813 0 1 ack 40 ------- 0 0.0 3.0 7 22
r 3.021813 2 1 tcp 1500 ------- 0 3.0 0.0 10 17
+ 3.021813 1 0 tcp 1500 ------- 0 3.0 0.0 10 17
- 3.021813 1 0 tcp 1500 ------- 0 3.0 0.0 10 17
r 3.023813 1 0 tcp 1500 ------- 0 3.0 0.0 8 15
+ 3.023813 0 1 ack 40 ------- 0 0.0 3.0 8 23
- 3.023813 0 1 ack 40 ------- 0 0.0 3.0 8 23
r 3.027813 2 1 tcp 1500 ------- 0 3.0 0.0 11 18
+ 3.027813 1 0 tcp 1500 ------- 0 3.0 0.0 11 18
- 3.027813 1 0 tcp 1500 ------- 0 3.0 0.0 11 18
r 3.02792 0 1 ack 40 ------- 0 0.0 3.0 7 22
+ 3.02792 1 2 ack 40 ------- 0 0.0 3.0 7 22
- 3.02792 1 2 ack 40 ------- 0 0.0 3.0 7 22
r 3.029813 1 0 tcp 1500 ------- 0 3.0 0.0 9 16
+ 3.029813 0 1 ack 40 ------- 0 0.0 3.0 9 24
- 3.029813 0 1 ack 40 ------- 0 0.0 3.0 9 24
r 3.033813 2 1 tcp 1500 ------- 0 3.0 0.0 12 19
+ 3.033813 1 0 tcp 1500 ------- 0 3.0 0.0 12 19
- 3.033813 1 0 tcp 1500 ------- 0 3.0 0.0 12 19
r 3.03392 0 1 ack 40 ------- 0 0.0 3.0 8 23
+ 3.03392 1 2 ack 40 ------- 0 0.0 3.0 8 23
- 3.03392 1 2 ack 40 ------- 0 0.0 3.0 8 23
r 3.035813 1 0 tcp 1500 ------- 0 3.0 0.0 10 17
+ 3.035813 0 1 ack 40 ------- 0 0.0 3.0 10 25
- 3.035813 0 1 ack 40 ------- 0 0.0 3.0 10 25
r 3.039813 2 1 tcp 1500 ------- 0 3.0 0.0 13 20
+ 3.039813 1 0 tcp 1500 ------- 0 3.0 0.0 13 20
- 3.039813 1 0 tcp 1500 ------- 0 3.0 0.0 13 20
r 3.03992 0 1 ack 40 ------- 0 0.0 3.0 9 24
+ 3.03992 1 2 ack 40 ------- 0 0.0 3.0 9 24
- 3.03992 1 2 ack 40 ------- 0 0.0 3.0 9 24
r 3.041813 1 0 tcp 1500 ------- 0 3.0 0.0 11 18
+ 3.041813 0 1 ack 40 ------- 0 0.0 3.0 11 26
- 3.041813 0 1 ack 40 ------- 0 0.0 3.0 11 26
r 3.045813 2 1 tcp 1500 ------- 0 3.0 0.0 14 21
+ 3.045813 1 0 tcp 1500 ------- 0 3.0 0.0 14 21
- 3.045813 1 0 tcp 1500 ------- 0 3.0 0.0 14 21
r 3.04592 0 1 ack 40 ------- 0 0.0 3.0 10 25
+ 3.04592 1 2 ack 40 ------- 0 0.0 3.0 10 25
- 3.04592 1 2 ack 40 ------- 0 0.0 3.0 10 25
r 3.047813 1 0 tcp 1500 ------- 0 3.0 0.0 12 19
+ 3.047813 0 1 ack 40 ------- 0 0.0 3.0 12 27
- 3.047813 0 1 ack 40 ------- 0 0.0 3.0 12 27
r 3.05192 0 1 ack 40 ------- 0 0.0 3.0 11 26
+ 3.05192 1 2 ack 40 ------- 0 0.0 3.0 11 26
- 3.05192 1 2 ack 40 ------- 0 0.0 3.0 11 26
r 3.053813 1 0 tcp 1500 ------- 0 3.0 0.0 13 20
+ 3.053813 0 1 ack 40 ------- 0 0.0 3.0 13 28
- 3.053813 0 1 ack 40 ------- 0 0.0 3.0 13 28
r 3.05792 0 1 ack 40 ------- 0 0.0 3.0 12 27
+ 3.05792 1 2 ack 40 ------- 0 0.0 3.0 12 27
- 3.05792 1 2 ack 40 ------- 0 0.0 3.0 12 27
r 3.059813 1 0 tcp 1500 ------- 0 3.0 0.0 14 21
+ 3.059813 0 1 ack 40 ------- 0 0.0 3.0 14 29
- 3.059813 0 1 ack 40 ------- 0 0.0 3.0 14 29
r 3.06392 0 1 ack 40 ------- 0 0.0 3.0 13 28
+ 3.06392 1 2 ack 40 ------- 0 0.0 3.0 13 28
- 3.06392 1 2 ack 40 ------- 0 0.0 3.0 13 28
r 3.06992 0 1 ack 40 ------- 0 0.0 3.0 14 29
+ 3.06992 1 2 ack 40 ------- 0 0.0 3.0 14 29
- 3.06992 1 2 ack 40 ------- 0 0.0 3.0 14 29
r 3.27952 1 2 ack 40 ------- 0 0.0 3.0 7 22
+ 3.27952 2 3 ack 40 ------- 0 0.0 3.0 7 22
- 3.27952 2 3 ack 40 ------- 0 0.0 3.0 7 22
r 3.28552 1 2 ack 40 ------- 0 0.0 3.0 8 23
+ 3.28552 2 3 ack 40 ------- 0 0.0 3.0 8 23
- 3.28552 2 3 ack 40 ------- 0 0.0 3.0 8 23
r 3.29152 1 2 ack 40 ------- 0 0.0 3.0 9 24
+ 3.29152 2 3 ack 40 ------- 0 0.0 3.0 9 24
- 3.29152 2 3 ack 40 ------- 0 0.0 3.0 9 24
r 3.29752 1 2 ack 40 ------- 0 0.0 3.0 10 25
+ 3.29752 2 3 ack 40 ------- 0 0.0 3.0 10 25
- 3.29752 2 3 ack 40 ------- 0 0.0 3.0 10 25
r 3.30352 1 2 ack 40 ------- 0 0.0 3.0 11 26
+ 3.30352 2 3 ack 40 ------- 0 0.0 3.0 11 26
- 3.30352 2 3 ack 40 ------- 0 0.0 3.0 11 26
r 3.30952 1 2 ack 40 ------- 0 0.0 3.0 12 27
+ 3.30952 2 3 ack 40 ------- 0 0.0 3.0 12 27
- 3.30952 2 3 ack 40 ------- 0 0.0 3.0 12 27
r 3.31552 1 2 ack 40 ------- 0 0.0 3.0 13 28
+ 3.31552 2 3 ack 40 ------- 0 0.0 3.0 13 28
- 3.31552 2 3 ack 40 ------- 0 0.0 3.0 13 28
r 3.32152 1 2 ack 40 ------- 0 0.0 3.0 14 29
+ 3.32152 2 3 ack 40 ------- 0 0.0 3.0 14 29
- 3.32152 2 3 ack 40 ------- 0 0.0 3.0 14 29
r 3.329627 2 3 ack 40 ------- 0 0.0 3.0 7 22
+ 3.329627 3 2 tcp 1500 ------- 0 3.0 0.0 15 30
- 3.329627 3 2 tcp 1500 ------- 0 3.0 0.0 15 30
+ 3.329627 3 2 tcp 1500 ------- 0 3.0 0.0 16 31
- 3.333627 3 2 tcp 1500 ------- 0 3.0 0.0 16 31
r 3.335627 2 3 ack 40 ------- 0 0.0 3.0 8 23
+ 3.335627 3 2 tcp 1500 ------- 0 3.0 0.0 17 32
+ 3.335627 3 2 tcp 1500 ------- 0 3.0 0.0 18 33
- 3.337627 3 2 tcp 1500 ------- 0 3.0 0.0 17 32
r 3.341627 2 3 ack 40 ------- 0 0.0 3.0 9 24
+ 3.341627 3 2 tcp 1500 ------- 0 3.0 0.0 19 34
+ 3.341627 3 2 tcp 1500 ------- 0 3.0 0.0 20 35
- 3.341627 3 2 tcp 1500 ------- 0 3.0 0.0 18 33
- 3.345627 3 2 tcp 1500 ------- 0 3.0 0.0 19 34
r 3.347627 2 3 ack 40 ------- 0 0.0 3.0 10 25
+ 3.347627 3 2 tcp 1500 ------- 0 3.0 0.0 21 36
+ 3.347627 3 2 tcp 1500 ------- 0 3.0 0.0 22 37
- 3.349627 3 2 tcp 1500 ------- 0 3.0 0.0 20 35
r 3.353627 2 3 ack 40 ------- 0 0.0 3.0 11 26
+ 3.353627 3 2 tcp 1500 ------- 0 3.0 0.0 23 38
+ 3.353627 3 2 tcp 1500 ------- 0 3.0 0.0 24 39
- 3.353627 3 2 tcp 1500 ------- 0 3.0 0.0 21 36
- 3.357627 3 2 tcp 1500 ------- 0 3.0 0.0 22 37
r 3.359627 2 3 ack 40 ------- 0 0.0 3.0 12 27
+ 3.359627 3 2 tcp 1500 ------- 0 3.0 0.0 25 40
+ 3.359627 3 2 tcp 1500 ------- 0 3.0 0.0 26 41
- 3.361627 3 2 tcp 1500 ------- 0 3.0 0.0 23 38
r 3.365627 2 3 ack 40 ------- 0 0.0 3.0 13 28
+ 3.365627 3 2 tcp 1500 ------- 0 3.0 0.0 27 42
+ 3.365627 3 2 tcp 1500 ------- 0 3.0 0.0 28 43
- 3.365627 3 2 tcp 1500 ------- 0 3.0 0.0 24 39
- 3.369627 3 2 tcp 1500 ------- 0 3.0 0.0 25 40
r 3.371627 2 3 ack 40 ------- 0 0.0 3.0 14 29
+ 3.371627 3 2 tcp 1500 ------- 0 3.0 0.0 29 44
+ 3.371627 3 2 tcp 1500 ------- 0 3.0 0.0 30 45
- 3.373627 3 2 tcp 1500 ------- 0 3.0 0.0 26 41
- 3.377627 3 2 tcp 1500 ------- 0 3.0 0.0 27 42
- 3.381627 3 2 tcp 1500 ------- 0 3.0 0.0 28 43
r 3.383627 3 2 tcp 1500 ------- 0 3.0 0.0 15 30
+ 3.383627 2 1 tcp 1500 ------- 0 3.0 0.0 15 30
- 3.383627 2 1 tcp 1500 ------- 0 3.0 0.0 15 30
- 3.385627 3 2 tcp 1500 ------- 0 3.0 0.0 29 44
r 3.387627 3 2 tcp 1500 ------- 0 3.0 0.0 16 31
+ 3.387627 2 1 tcp 1500 ------- 0 3.0 0.0 16 31
- 3.389627 2 1 tcp 1500 ------- 0 3.0 0.0 16 31
- 3.389627 3 2 tcp 1500 ------- 0 3.0 0.0 30 45
r 3.391627 3 2 tcp 1500 ------- 0 3.0 0.0 17 32
+ 3.391627 2 1 tcp 1500 ------- 0 3.0 0.0 17 32
- 3.395627 2 1 tcp 1500 ------- 0 3.0 0.0 17 32
r 3.395627 3 2 tcp 1500 ------- 0 3.0 0.0 18 33
+ 3.395627 2 1 tcp 1500 ------- 0 3.0 0.0 18 33
r 3.399627 3 2 tcp 1500 ------- 0 3.0 0.0 19 34
+ 3.399627 2 1 tcp 1500 ------- 0 3.0 0.0 19 34
- 3.401627 2 1 tcp 1500 ------- 0 3.0 0.0 18 33
r 3.403627 3 2 tcp 1500 ------- 0 3.0 0.0 20 35
+ 3.403627 2 1 tcp 1500 ------- 0 3.0 0.0 20 35
- 3.407627 2 1 tcp 1500 ------- 0 3.0 0.0 19 34
r 3.407627 3 2 tcp 1500 ------- 0 3.0 0.0 21 36
+ 3.407627 2 1 tcp 1500 ------- 0 3.0 0.0 21 36
r 3.411627 3 2 tcp 1500 ------- 0 3.0 0.0 22 37
+ 3.411627 2 1 tcp 1500 ------- 0 3.0 0.0 22 37
- 3.413627 2 1 tcp 1500 ------- 0 3.0 0.0 20 35
r 3.415627 3 2 tcp 1500 ------- 0 3.0 0.0 23 38
+ 3.415627 2 1 tcp 1500 ------- 0 3.0 0.0 23 38
- 3.419627 2 1 tcp 1500 ------- 0 3.0 0.0 21 36
r 3.419627 3 2 tcp 1500 ------- 0 3.0 0.0 24 39
+ 3.419627 2 1 tcp 1500 ------- 0 3.0 0.0 24 39
r 3.423627 3 2 tcp 1500 ------- 0 3.0 0.0 25 40
+ 3.423627 2 1 tcp 1500 ------- 0 3.0 0.0 25 40
- 3.425627 2 1 tcp 1500 ------- 0 3.0 0.0 22 37
r 3.427627 3 2 tcp 1500 ------- 0 3.0 0.0 26 41
+ 3.427627 2 1 tcp 1500 ------- 0 3.0 0.0 26 41
- 3.431627 2 1 tcp 1500 ------- 0 3.0 0.0 23 38
r 3.431627 3 2 tcp 1500 ------- 0 3.0 0.0 27 42
+ 3.431627 2 1 tcp 1500 ------- 0 3.0 0.0 27 42
r 3.435627 3 2 tcp 1500 ------- 0 3.0 0.0 28 43
+ 3.435627 2 1 tcp 1500 ------- 0 3.0 0.0 28 43
- 3.437627 2 1 tcp 1500 ------- 0 3.0 0.0 24 39
r 3.439627 3 2 tcp 1500 ------- 0 3.0 0.0 29 44
+ 3.439627 2 1 tcp 1500 ------- 0 3.0 0.0 29 44
- 3.443627 2 1 tcp 1500 ------- 0 3.0 0.0 25 40
r 3.443627 3 2 tcp 1500 ------- 0 3.0 0.0 30 45
+ 3.443627 2 1 tcp 1500 ------- 0 3.0 0.0 30 45
- 3.449627 2 1 tcp 1500 ------- 0 3.0 0.0 26 41
- 3.455627 2 1 tcp 1500 ------- 0 3.0 0.0 27 42
- 3.461627 2 1 tcp 1500 ------- 0 3.0 0.0 28 43
- 3.467627 2 1 tcp 1500 ------- 0 3.0 0.0 29 44
- 3.473627 2 1 tcp 1500 ------- 0 3.0 0.0 30 45
r 3.639627 2 1 tcp 1500 ------- 0 3.0 0.0 15 30
+ 3.639627 1 0 tcp 1500 ------- 0 3.0 0.0 15 30
- 3.639627 1 0 tcp 1500 ------- 0 3.0 0.0 15 30
r 3.645627 2 1 tcp 1500 ------- 0 3.0 0.0 16 31
+ 3.645627 1 0 tcp 1500 ------- 0 3.0 0.0 16 31
- 3.645627 1 0 tcp 1500 ------- 0 3.0 0.0 16 31
r 3.651627 2 1 tcp 1500 ------- 0 3.0 0.0 17 32
+ 3.651627 1 0 tcp 1500 ------- 0 3.0 0.0 17 32
- 3.651627 1 0 tcp 1500 ------- 0 3.0 0.0 17 32
r 3.653627 1 0 tcp 1500 ------- 0 3.0 0.0 15 30
+ 3.653627 0 1 ack 40 ------- 0 0.0 3.0 15 46
- 3.653627 0 1 ack 40 ------- 0 0.0 3.0 15 46
r 3.657627 2 1 tcp 1500 ------- 0 3.0 0.0 18 33
+ 3.657627 1 0 tcp 1500 ------- 0 3.0 0.0 18 33
- 3.657627 1 0 tcp 1500 ------- 0 3.0 0.0 18 33
r 3.659627 1 0 tcp 1500 ------- 0 3.0 0.0 16 31
+ 3.659627 0 1 ack 40 ------- 0 0.0 3.0 16 47
- 3.659627 0 1 ack 40 ------- 0 0.0 3.0 16 47
r 3.663627 2 1 tcp 1500 ------- 0 3.0 0.0 19 34
+ 3.663627 1 0 tcp 1500 ------- 0 3.0 0.0 19 34
- 3.663627 1 0 tcp 1500 ------- 0 3.0 0.0 19 34
r 3.663733 0 1 ack 40 ------- 0 0.0 3.0 15 46
+ 3.663733 1 2 ack 40 ------- 0 0.0 3.0 15 46
- 3.663733 1 2 ack 40 ------- 0 0.0 3.0 15 46
r 3.665627 1 0 tcp 1500 ------- 0 3.0 0.0 17 32
+ 3.665627 0 1 ack 40 ------- 0 0.0 3.0 17 48
- 3.665627 0 1 ack 40 ------- 0 0.0 3.0 17 48
r 3.669627 2 1 tcp 1500 ------- 0 3.0 0.0 20 35
+ 3.669627 1 0 tcp 1500 ------- 0 3.0 0.0 20 35
- 3.669627 1 0 tcp 1500 ------- 0 3.0 0.0 20 35
r 3.669733 0 1 ack 40 ------- 0 0.0 3.0 16 47
+ 3.669733 1 2 ack 40 ------- 0 0.0 3.0 16 47
- 3.669733 1 2 ack 40 ------- 0 0.0 3.0 16 47
r 3.671627 1 0 tcp 1500 ------- 0 3.0 0.0 18 33
+ 3.671627 0 1 ack 40 ------- 0 0.0 3.0 18 49
- 3.671627 0 1 ack 40 ------- 0 0.0 3.0 18 49
r 3.675627 2 1 tcp 1500 ------- 0 3.0 0.0 21 36
+ 3.675627 1 0 tcp 1500 ------- 0 3.0 0.0 21 36
- 3.675627 1 0 tcp 1500 ------- 0 3.0 0.0 21 36
r 3.675733 0 1 ack 40 ------- 0 0.0 3.0 17 48
+ 3.675733 1 2 ack 40 ------- 0 0.0 3.0 17 48
- 3.675733 1 2 ack 40 ------- 0 0.0 3.0 17 48
r 3.677627 1 0 tcp 1500 ------- 0 3.0 0.0 19 34
+ 3.677627 0 1 ack 40 ------- 0 0.0 3.0 19 50
- 3.677627 0 1 ack 40 ------- 0 0.0 3.0 19 50
r 3.681627 2 1 tcp 1500 ------- 0 3.0 0.0 22 37
+ 3.681627 1 0 tcp 1500 ------- 0 3.0 0.0 22 37
- 3.681627 1 0 tcp 1500 ------- 0 3.0 0.0 22 37
r 3.681733 0 1 ack 40 ------- 0 0.0 3.0 18 49
+ 3.681733 1 2 ack 40 ------- 0 0.0 3.0 18 49
- 3.681733 1 2 ack 40 ------- 0 0.0 3.0 18 49
r 3.683627 1 0 tcp 1500 ------- 0 3.0 0.0 20 35
+ 3.683627 0 1 ack 40 ------- 0 0.0 3.0 20 51
- 3.683627 0 1 ack 40 ------- 0 0.0 3.0 20 51
r 3.687627 2 1 tcp 1500 ------- 0 3.0 0.0 23 38
+ 3.687627 1 0 tcp 1500 ------- 0 3.0 0.0 23 38
- 3.687627 1 0 tcp 1500 ------- 0 3.0 0.0 23 38
r 3.687733 0 1 ack 40 ------- 0 0.0 3.0 19 50
+ 3.687733 1 2 ack 40 ------- 0 0.0 3.0 19 50
- 3.687733 1 2 ack 40 ------- 0 0.0 3.0 19 50
r 3.689627 1 0 tcp 1500 ------- 0 3.0 0.0 21 36
+ 3.689627 0 1 ack 40 ------- 0 0.0 3.0 21 52
- 3.689627 0 1 ack 40 ------- 0 0.0 3.0 21 52
r 3.693627 2 1 tcp 1500 ------- 0 3.0 0.0 24 39
+ 3.693627 1 0 tcp 1500 ------- 0 3.0 0.0 24 39
- 3.693627 1 0 tcp 1500 ------- 0 3.0 0.0 24 39
r 3.693733 0 1 ack 40 ------- 0 0.0 3.0 20 51
+ 3.693733 1 2 ack 40 ------- 0 0.0 3.0 20 51
- 3.693733 1 2 ack 40 ------- 0 0.0 3.0 20 51
r 3.695627 1 0 tcp 1500 ------- 0 3.0 0.0 22 37
+ 3.695627 0 1 ack 40 ------- 0 0.0 3.0 22 53
- 3.695627 0 1 ack 40 ------- 0 0.0 3.0 22 53
r 3.699627 2 1 tcp 1500 ------- 0 3.0 0.0 25 40
+ 3.699627 1 0 tcp 1500 ------- 0 3.0 0.0 25 40
- 3.699627 1 0 tcp 1500 ------- 0 3.0 0.0 25 40
r 3.699733 0 1 ack 40 ------- 0 0.0 3.0 21 52
+ 3.699733 1 2 ack 40 ------- 0 0.0 3.0 21 52
- 3.699733 1 2 ack 40 ------- 0 0.0 3.0 21 52
r 3.701627 1 0 tcp 1500 ------- 0 3.0 0.0 23 38
+ 3.701627 0 1 ack 40 ------- 0 0.0 3.0 23 54
- 3.701627 0 1 ack 40 ------- 0 0.0 3.0 23 54
r 3.705627 2 1 tcp 1500 ------- 0 3.0 0.0 26 41
+ 3.705627 1 0 tcp 1500 ------- 0 3.0 0.0 26 41
- 3.705627 1 0 tcp 1500 ------- 0 3.0 0.0 26 41
r 3.705733 0 1 ack 40 ------- 0 0.0 3.0 22 53
+ 3.705733 1 2 ack 40 ------- 0 0.0 3.0 22 53
- 3.705733 1 2 ack 40 ------- 0 0.0 3.0 22 53
r 3.707627 1 0 tcp 1500 ------- 0 3.0 0.0 24 39
+ 3.707627 0 1 ack 40 ------- 0 0.0 3.0 24 55
- 3.707627 0 1 ack 40 ------- 0 0.0 3.0 24 55
r 3.711627 2 1 tcp 1500 ------- 0 3.0 0.0 27 42
+ 3.711627 1 0 tcp 1500 ------- 0 3.0 0.0 27 42
- 3.711627 1 0 tcp 1500 ------- 0 3.0 0.0 27 42
r 3.711733 0 1 ack 40 ------- 0 0.0 3.0 23 54
+ 3.711733 1 2 ack 40 ------- 0 0.0 3.0 23 54
- 3.711733 1 2 ack 40 ------- 0 0.0 3.0 23 54
r 3.713627 1 0 tcp 1500 ------- 0 3.0 0.0 25 40
+ 3.713627 0 1 ack 40 ------- 0 0.0 3.0 25 56
- 3.713627 0 1 ack 40 ------- 0 0.0 3.0 25 56
r 3.717627 2 1 tcp 1500 ------- 0 3.0 0.0 28 43
+ 3.717627 1 0 tcp 1500 ------- 0 3.0 0.0 28 43
- 3.717627 1 0 tcp 1500 ------- 0 3.0 0.0 28 43
r 3.717733 0 1 ack 40 ------- 0 0.0 3.0 24 55
+ 3.717733 1 2 ack 40 ------- 0 0.0 3.0 24 55
- 3.717733 1 2 ack 40 ------- 0 0.0 3.0 24 55
r 3.719627 1 0 tcp 1500 ------- 0 3.0 0.0 26 41
+ 3.719627 0 1 ack 40 ------- 0 0.0 3.0 26 57
- 3.719627 0 1 ack 40 ------- 0 0.0 3.0 26 57
r 3.723627 2 1 tcp 1500 ------- 0 3.0 0.0 29 44
+ 3.723627 1 0 tcp 1500 ------- 0 3.0 0.0 29 44
- 3.723627 1 0 tcp 1500 ------- 0 3.0 0.0 29 44
r 3.723733 0 1 ack 40 ------- 0 0.0 3.0 25 56
+ 3.723733 1 2 ack 40 ------- 0 0.0 3.0 25 56
- 3.723733 1 2 ack 40 ------- 0 0.0 3.0 25 56
r 3.725627 1 0 tcp 1500 ------- 0 3.0 0.0 27 42
+ 3.725627 0 1 ack 40 ------- 0 0.0 3.0 27 58
- 3.725627 0 1 ack 40 ------- 0 0.0 3.0 27 58
r 3.729627 2 1 tcp 1500 ------- 0 3.0 0.0 30 45
+ 3.729627 1 0 tcp 1500 ------- 0 3.0 0.0 30 45
- 3.729627 1 0 tcp 1500 ------- 0 3.0 0.0 30 45
r 3.729733 0 1 ack 40 ------- 0 0.0 3.0 26 57
+ 3.729733 1 2 ack 40 ------- 0 0.0 3.0 26 57
- 3.729733 1 2 ack 40 ------- 0 0.0 3.0 26 57
r 3.731627 1 0 tcp 1500 ------- 0 3.0 0.0 28 43
+ 3.731627 0 1 ack 40 ------- 0 0.0 3.0 28 59
- 3.731627 0 1 ack 40 ------- 0 0.0 3.0 28 59
r 3.735733 0 1 ack 40 ------- 0 0.0 3.0 27 58
+ 3.735733 1 2 ack 40 ------- 0 0.0 3.0 27 58
- 3.735733 1 2 ack 40 ------- 0 0.0 3.0 27 58
r 3.737627 1 0 tcp 1500 ------- 0 3.0 0.0 29 44
+ 3.737627 0 1 ack 40 ------- 0 0.0 3.0 29 60
- 3.737627 0 1 ack 40 ------- 0 0.0 3.0 29 60
r 3.741733 0 1 ack 40 ------- 0 0.0 3.0 28 59
+ 3.741733 1 2 ack 40 ------- 0 0.0 3.0 28 59
- 3.741733 1 2 ack 40 ------- 0 0.0 3.0 28 59
r 3.743627 1 0 tcp 1500 ------- 0 3.0 0.0 30 45
+ 3.743627 0 1 ack 40 ------- 0 0.0 3.0 30 61
- 3.743627 0 1 ack 40 ------- 0 0.0 3.0 30 61
r 3.747733 0 1 ack 40 ------- 0 0.0 3.0 29 60
+ 3.747733 1 2 ack 40 ------- 0 0.0 3.0 29 60
- 3.747733 1 2 ack 40 ------- 0 0.0 3.0 29 60
r 3.753733 0 1 ack 40 ------- 0 0.0 3.0 30 61
+ 3.753733 1 2 ack 40 ------- 0 0.0 3.0 30 61
- 3.753733 1 2 ack 40 ------- 0 0.0 3.0 30 61
r 3.915333 1 2 ack 40 ------- 0 0.0 3.0 15 46
+ 3.915333 2 3 ack 40 ------- 0 0.0 3.0 15 46
- 3.915333 2 3 ack 40 ------- 0 0.0 3.0 15 46
r 3.921333 1 2 ack 40 ------- 0 0.0 3.0 16 47
+ 3.921333 2 3 ack 40 ------- 0 0.0 3.0 16 47
- 3.921333 2 3 ack 40 ------- 0 0.0 3.0 16 47
r 3.927333 1 2 ack 40 ------- 0 0.0 3.0 17 48
+ 3.927333 2 3 ack 40 ------- 0 0.0 3.0 17 48
- 3.927333 2 3 ack 40 ------- 0 0.0 3.0 17 48
r 3.933333 1 2 ack 40 ------- 0 0.0 3.0 18 49
+ 3.933333 2 3 ack 40 ------- 0 0.0 3.0 18 49
- 3.933333 2 3 ack 40 ------- 0 0.0 3.0 18 49
r 3.939333 1 2 ack 40 ------- 0 0.0 3.0 19 50
+ 3.939333 2 3 ack 40 ------- 0 0.0 3.0 19 50
- 3.939333 2 3 ack 40 ------- 0 0.0 3.0 19 50
r 3.945333 1 2 ack 40 ------- 0 0.0 3.0 20 51
+ 3.945333 2 3 ack 40 ------- 0 0.0 3.0 20 51
- 3.945333 2 3 ack 40 ------- 0 0.0 3.0 20 51
r 3.951333 1 2 ack 40 ------- 0 0.0 3.0 21 52
+ 3.951333 2 3 ack 40 ------- 0 0.0 3.0 21 52
- 3.951333 2 3 ack 40 ------- 0 0.0 3.0 21 52
r 3.957333 1 2 ack 40 ------- 0 0.0 3.0 22 53
+ 3.957333 2 3 ack 40 ------- 0 0.0 3.0 22 53
- 3.957333 2 3 ack 40 ------- 0 0.0 3.0 22 53
r 3.963333 1 2 ack 40 ------- 0 0.0 3.0 23 54
+ 3.963333 2 3 ack 40 ------- 0 0.0 3.0 23 54
- 3.963333 2 3 ack 40 ------- 0 0.0 3.0 23 54
r 3.96544 2 3 ack 40 ------- 0 0.0 3.0 15 46
+ 3.96544 3 2 tcp 1500 ------- 0 3.0 0.0 31 62
- 3.96544 3 2 tcp 1500 ------- 0 3.0 0.0 31 62
+ 3.96544 3 2 tcp 1500 ------- 0 3.0 0.0 32 63
r 3.969333 1 2 ack 40 ------- 0 0.0 3.0 24 55
+ 3.969333 2 3 ack 40 ------- 0 0.0 3.0 24 55
- 3.969333 2 3 ack 40 ------- 0 0.0 3.0 24 55
- 3.96944 3 2 tcp 1500 ------- 0 3.0 0.0 32 63
r 3.97144 2 3 ack 40 ------- 0 0.0 3.0 16 47
+ 3.97144 3 2 tcp 1500 ------- 0 3.0 0.0 33 64
+ 3.97144 3 2 tcp 1500 ------- 0 3.0 0.0 34 65
- 3.97344 3 2 tcp 1500 ------- 0 3.0 0.0 33 64
r 3.975333 1 2 ack 40 ------- 0 0.0 3.0 25 56
+ 3.975333 2 3 ack 40 ------- 0 0.0 3.0 25 56
- 3.975333 2 3 ack 40 ------- 0 0.0 3.0 25 56
r 3.97744 2 3 ack 40 ------- 0 0.0 3.0 17 48
+ 3.97744 3 2 tcp 1500 ------- 0 3.0 0.0 35 66
+ 3.97744 3 2 tcp 1500 ------- 0 3.0 0.0 36 67
- 3.97744 3 2 tcp 1500 ------- 0 3.0 0.0 34 65
r 3.981333 1 2 ack 40 ------- 0 0.0 3.0 26 57
+ 3.981333 2 3 ack 40 ------- 0 0.0 3.0 26 57
- 3.981333 2 3 ack 40 ------- 0 0.0 3.0 26 57
- 3.98144 3 2 tcp 1500 ------- 0 3.0 0.0 35 66
r 3.98344 2 3 ack 40 ------- 0 0.0 3.0 18 49
+ 3.98344 3 2 tcp 1500 ------- 0 3.0 0.0 37 68
+ 3.98344 3 2 tcp 1500 ------- 0 3.0 0.0 38 69
- 3.98544 3 2 tcp 1500 ------- 0 3.0 0.0 36 67
r 3.987333 1 2 ack 40 ------- 0 0.0 3.0 27 58
+ 3.987333 2 3 ack 40 ------- 0 0.0 3.0 27 58
- 3.987333 2 3 ack 40 ------- 0 0.0 3.0 27 58
r 3.98944 2 3 ack 40 ------- 0 0.0 3.0 19 50
+ 3.98944 3 2 tcp 1500 ------- 0 3.0 0.0 39 70
+ 3.98944 3 2 tcp 1500 ------- 0 3.0 0.0 40 71
- 3.98944 3 2 tcp 1500 ------- 0 3.0 0.0 37 68
r 3.993333 1 2 ack 40 ------- 0 0.0 3.0 28 59
+ 3.993333 2 3 ack 40 ------- 0 0.0 3.0 28 59
- 3.993333 2 3 ack 40 ------- 0 0.0 3.0 28 59
- 3.99344 3 2 tcp 1500 ------- 0 3.0 0.0 38 69
r 3.99544 2 3 ack 40 ------- 0 0.0 3.0 20 51
+ 3.99544 3 2 tcp 1500 ------- 0 3.0 0.0 41 72
+ 3.99544 3 2 tcp 1500 ------- 0 3.0 0.0 42 73
- 3.99744 3 2 tcp 1500 ------- 0 3.0 0.0 39 70
r 3.999333 1 2 ack 40 ------- 0 0.0 3.0 29 60
+ 3.999333 2 3 ack 40 ------- 0 0.0 3.0 29 60
- 3.999333 2 3 ack 40 ------- 0 0.0 3.0 29 60
r 4.00144 2 3 ack 40 ------- 0 0.0 3.0 21 52
+ 4.00144 3 2 tcp 1500 ------- 0 3.0 0.0 43 74
+ 4.00144 3 2 tcp 1500 ------- 0 3.0 0.0 44 75
- 4.00144 3 2 tcp 1500 ------- 0 3.0 0.0 40 71
r 4.005333 1 2 ack 40 ------- 0 0.0 3.0 30 61
+ 4.005333 2 3 ack 40 ------- 0 0.0 3.0 30 61
- 4.005333 2 3 ack 40 ------- 0 0.0 3.0 30 61
- 4.00544 3 2 tcp 1500 ------- 0 3.0 0.0 41 72
r 4.00744 2 3 ack 40 ------- 0 0.0 3.0 22 53
+ 4.00744 3 2 tcp 1500 ------- 0 3.0 0.0 45 76
+ 4.00744 3 2 tcp 1500 ------- 0 3.0 0.0 46 77
- 4.00944 3 2 tcp 1500 ------- 0 3.0 0.0 42 73
r 4.01344 2 3 ack 40 ------- 0 0.0 3.0 23 54
+ 4.01344 3 2 tcp 1500 ------- 0 3.0 0.0 47 78
+ 4.01344 3 2 tcp 1500 ------- 0 3.0 0.0 48 79
- 4.01344 3 2 tcp 1500 ------- 0 3.0 0.0 43 74
- 4.01744 3 2 tcp 1500 ------- 0 3.0 0.0 44 75
r 4.01944 2 3 ack 40 ------- 0 0.0 3.0 24 55
+ 4.01944 3 2 tcp 1500 ------- 0 3.0 0.0 49 80
+ 4.01944 3 2 tcp 1500 ------- 0 3.0 0.0 50 81
r 4.01944 3 2 tcp 1500 ------- 0 3.0 0.0 31 62
+ 4.01944 2 1 tcp 1500 ------- 0 3.0 0.0 31 62
- 4.01944 2 1 tcp 1500 ------- 0 3.0 0.0 31 62
- 4.02144 3 2 tcp 1500 ------- 0 3.0 0.0 45 76
r 4.02344 3 2 tcp 1500 ------- 0 3.0 0.0 32 63
+ 4.02344 2 1 tcp 1500 ------- 0 3.0 0.0 32 63
r 4.02544 2 3 ack 40 ------- 0 0.0 3.0 25 56
+ 4.02544 3 2 tcp 1500 ------- 0 3.0 0.0 51 82
+ 4.02544 3 2 tcp 1500 ------- 0 3.0 0.0 52 83
- 4.02544 3 2 tcp 1500 ------- 0 3.0 0.0 46 77
- 4.02544 2 1 tcp 1500 ------- 0 3.0 0.0 32 63
r 4.02744 3 2 tcp 1500 ------- 0 3.0 0.0 33 64
+ 4.02744 2 1 tcp 1500 ------- 0 3.0 0.0 33 64
- 4.02944 3 2 tcp 1500 ------- 0 3.0 0.0 47 78
r 4.03144 2 3 ack 40 ------- 0 0.0 3.0 26 57
+ 4.03144 3 2 tcp 1500 ------- 0 3.0 0.0 53 84
+ 4.03144 3 2 tcp 1500 ------- 0 3.0 0.0 54 85
r 4.03144 3 2 tcp 1500 ------- 0 3.0 0.0 34 65
+ 4.03144 2 1 tcp 1500 ------- 0 3.0 0.0 34 65
- 4.03144 2 1 tcp 1500 ------- 0 3.0 0.0 33 64
- 4.03344 3 2 tcp 1500 ------- 0 3.0 0.0 48 79
r 4.03544 3 2 tcp 1500 ------- 0 3.0 0.0 35 66
+ 4.03544 2 1 tcp 1500 ------- 0 3.0 0.0 35 66
- 4.03744 3 2 tcp 1500 ------- 0 3.0 0.0 49 80
r 4.03744 2 3 ack 40 ------- 0 0.0 3.0 27 58
+ 4.03744 3 2 tcp 1500 ------- 0 3.0 0.0 55 86
+ 4.03744 3 2 tcp 1500 ------- 0 3.0 0.0 56 87
- 4.03744 2 1 tcp 1500 ------- 0 3.0 0.0 34 65
r 4.03944 3 2 tcp 1500 ------- 0 3.0 0.0 36 67
+ 4.03944 2 1 tcp 1500 ------- 0 3.0 0.0 36 67
- 4.04144 3 2 tcp 1500 ------- 0 3.0 0.0 50 81
r 4.04344 2 3 ack 40 ------- 0 0.0 3.0 28 59
+ 4.04344 3 2 tcp 1500 ------- 0 3.0 0.0 57 88
+ 4.04344 3 2 tcp 1500 ------- 0 3.0 0.0 58 89
r 4.04344 3 2 tcp 1500 ------- 0 3.0 0.0 37 68
+ 4.04344 2 1 tcp 1500 ------- 0 3.0 0.0 37 68
- 4.04344 2 1 tcp 1500 ------- 0 3.0 0.0 35 66
- 4.04544 3 2 tcp 1500 ------- 0 3.0 0.0 51 82
r 4.04744 3 2 tcp 1500 ------- 0 3.0 0.0 38 69
+ 4.04744 2 1 tcp 1500 ------- 0 3.0 0.0 38 69
- 4.04944 3 2 tcp 1500 ------- 0 3.0 0.0 52 83
r 4.04944 2 3 ack 40 ------- 0 0.0 3.0 29 60
+ 4.04944 3 2 tcp 1500 ------- 0 3.0 0.0 59 90
- 4.04944 2 1 tcp 1500 ------- 0 3.0 0.0 36 67
r 4.05144 3 2 tcp 1500 ------- 0 3.0 0.0 39 70
+ 4.05144 2 1 tcp 1500 ------- 0 3.0 0.0 39 70
- 4.05344 3 2 tcp 1500 ------- 0 3.0 0.0 53 84
r 4.05544 2 3 ack 40 ------- 0 0.0 3.0 30 61
+ 4.05544 3 2 tcp 1500 ------- 0 3.0 0.0 60 91
r 4.05544 3 2 tcp 1500 ------- 0 3.0 0.0 40 71
+ 4.05544 2 1 tcp 1500 ------- 0 3.0 0.0 40 71
- 4.05544 2 1 tcp 1500 ------- 0 3.0 0.0 37 68
- 4.05744 3 2 tcp 1500 ------- 0 3.0 0.0 54 85
r 4.05944 3 2 tcp 1500 ------- 0 3.0 0.0 41 72
+ 4.05944 2 1 tcp 1500 ------- 0 3.0 0.0 41 72
- 4.06144 3 2 tcp 1500 ------- 0 3.0 0.0 55 86
- 4.06144 2 1 tcp 1500 ------- 0 3.0 0.0 38 69
r 4.06344 3 2 tcp 1500 ------- 0 3.0 0.0 42 73
+ 4.06344 2 1 tcp 1500 ------- 0 3.0 0.0 42 73
- 4.06544 3 2 tcp 1500 ------- 0 3.0 0.0 56 87
r 4.06744 3 2 tcp 1500 ------- 0 3.0 0.0 43 74
+ 4.06744 2 1 tcp 1500 ------- 0 3.0 0.0 43 74
- 4.06744 2 1 tcp 1500 ------- 0 3.0 0.0 39 70