n -t * -s 0  -x 0 -y 0 -Z 0 -z 20  -v circle -c black
n -t * -s 1  -x 0 -y 0 -Z 0 -z 20  -v circle -c black
n -t * -s 2  -x 0 -y 0 -Z 0 -z 20  -v circle -c black
n -t * -s 3  -x 0 -y 0 -Z 0 -z 20  -v circle -c black
n -t * -s 4  -x 0 -y 0 -Z 0 -z 20  -v circle -c black
n -t * -s 5  -x 0 -y 0 -Z 0 -z 20  -v circle -c black
n -t * -s 6  -x 0 -y 0 -Z 0 -z 20  -v circle -c black
n -t * -s 7  -x 0 -y 0 -Z 0 -z 20  -v circle -c black
n -t * -s 8  -x 0 -y 0 -Z 0 -z 20  -v circle -c black
n -t * -s 9  -x 0 -y 0 -Z 0 -z 20  -v circle -c black
V -t * -v 1.0a5 -a 0
W -t * -x 300 -y 300
A -t * -n 1 -p 0 -o 0xffffffff -c 31 -a 1
A -t * -h 1 -m 2147483647 -s 0
n -t 2.000000 -s 0 -x 208.789334 -y 93.091765 -U -0.149316 -V 0.235926 -T 296.289801
n -t 2.000000 -s 1 -x 196.256782 -y 195.027921 -U -4.982668 -V 0.796186 -T 22.510810
n -t 2.000000 -s 2 -x 58.994594 -y 127.099825 -U 6.623385 -V 7.364964 -T 12.869843
n -t 2.000000 -s 3 -x 60.502768 -y 196.728288 -U 8.452739 -V 1.000752 -T 22.926232
n -t 2.000000 -s 4 -x 42.287574 -y 46.815410 -U 5.044353 -V -0.011340 -T 34.637376
n -t 2.000000 -s 5 -x 207.914288 -y 176.386773 -U -4.373408 -V -4.824423 -T 26.539364
n -t 2.000000 -s 6 -x 296.582366 -y 11.450506 -U -0.123509 -V 0.446547 -T 561.606262
n -t 2.000000 -s 7 -x 72.137840 -y 285.717043 -U 5.421251 -V -4.533322 -T 22.315466
n -t 2.000000 -s 8 -x 10.910589 -y 10.090161 -U 4.070038 -V 4.065511 -T 36.648651
n -t 2.000000 -s 9 -x 113.011887 -y 64.011235 -U -2.718455 -V -1.214557 -T 37.322962
+ -t 2.556838879 -s 1 -d -1 -p cbr -e 512 -c 2 -a 0 -i 0 -k AGT 
- -t 2.556838879 -s 1 -d -1 -p cbr -e 512 -c 2 -a 0 -i 0 -k AGT
h -t 2.556838879 -s 1 -d -1 -p cbr -e 512 -c 2 -a 0 -i 0 -k AGT
r -t 2.575580877 -s 2 -d 2 -p cbr -e 512 -c 2 -a 0 -i 0 -k AGT
+ -t 2.777383288 -s 1 -d -1 -p cbr -e 512 -c 2 -a 0 -i 3 -k AGT 
- -t 2.777383288 -s 1 -d -1 -p cbr -e 512 -c 2 -a 0 -i 3 -k AGT
h -t 2.777383288 -s 1 -d -1 -p cbr -e 512 -c 2 -a 0 -i 3 -k AGT
r -t 2.783540716 -s 2 -d 2 -p cbr -e 512 -c 2 -a 0 -i 3 -k AGT
+ -t 2.921986346 -s 1 -d -1 -p cbr -e 512 -c 2 -a 0 -i 4 -k AGT 
- -t 2.921986346 -s 1 -d -1 -p cbr -e 512 -c 2 -a 0 -i 4 -k AGT
h -t 2.921986346 -s 1 -d -1 -p cbr -e 512 -c 2 -a 0 -i 4 -k AGT
r -t 2.927803755 -s 2 -d 2 -p cbr -e 512 -c 2 -a 0 -i 4 -k AGT
+ -t 3.084067740 -s 1 -d -1 -p cbr -e 512 -c 2 -a 0 -i 5 -k AGT 
- -t 3.084067740 -s 1 -d -1 -p cbr -e 512 -c 2 -a 0 -i 5 -k AGT
h -t 3.084067740 -s 1 -d -1 -p cbr -e 512 -c 2 -a 0 -i 5 -k AGT
r -t 3.089817128 -s 2 -d 2 -p cbr -e 512 -c 2 -a 0 -i 5 -k AGT
+ -t 3.391205577 -s 1 -d -1 -p cbr -e 512 -c 2 -a 0 -i 6 -k AGT 
- -t 3.391205577 -s 1 -d -1 -p cbr -e 512 -c 2 -a 0 -i 6 -k AGT
h -t 3.391205577 -s 1 -d -1 -p cbr -e 512 -c 2 -a 0 -i 6 -k AGT
r -t 3.396714923 -s 2 -d 2 -p cbr -e 512 -c 2 -a 0 -i 6 -k AGT
+ -t 3.556449110 -s 1 -d -1 -p cbr -e 512 -c 2 -a 0 -i 7 -k AGT 
- -t 3.556449110 -s 1 -d -1 -p cbr -e 512 -c 2 -a 0 -i 7 -k AGT
h -t 3.556449110 -s 1 -d -1 -p cbr -e 512 -c 2 -a 0 -i 7 -k AGT
r -t 3.562338434 -s 2 -d 2 -p cbr -e 512 -c 2 -a 0 -i 7 -k AGT
+ -t 3.765001577 -s 1 -d -1 -p cbr -e 512 -c 2 -a 0 -i 8 -k AGT 
- -t 3.765001577 -s 1 -d -1 -p cbr -e 512 -c 2 -a 0 -i 8 -k AGT
h -t 3.765001577 -s 1 -d -1 -p cbr -e 512 -c 2 -a 0 -i 8 -k AGT
r -t 3.770450873 -s 2 -d 2 -p cbr -e 512 -c 2 -a 0 -i 8 -k AGT
+ -t 4.047944118 -s 1 -d -1 -p cbr -e 512 -c 2 -a 0 -i 9 -k AGT 
- -t 4.047944118 -s 1 -d -1 -p cbr -e 512 -c 2 -a 0 -i 9 -k AGT
h -t 4.047944118 -s 1 -d -1 -p cbr -e 512 -c 2 -a 0 -i 9 -k AGT
r -t 4.053913377 -s 2 -d 2 -p cbr -e 512 -c 2 -a 0 -i 9 -k AGT
+ -t 4.272888549 -s 1 -d -1 -p cbr -e 512 -c 2 -a 0 -i 10 -k AGT 
- -t 4.272888549 -s 1 -d -1 -p cbr -e 512 -c 2 -a 0 -i 10 -k AGT
h -t 4.272888549 -s 1 -d -1 -p cbr -e 512 -c 2 -a 0 -i 10 -k AGT
r -t 4.278937778 -s 2 -d 2 -p cbr -e 512 -c 2 -a 0 -i 10 -k AGT
+ -t 4.473795172 -s 1 -d -1 -p cbr -e 512 -c 2 -a 0 -i 11 -k AGT 
- -t 4.473795172 -s 1 -d -1 -p cbr -e 512 -c 2 -a 0 -i 11 -k AGT
h -t 4.473795172 -s 1 -d -1 -p cbr -e 512 -c 2 -a 0 -i 11 -k AGT
r -t 4.479824374 -s 2 -d 2 -p cbr -e 512 -c 2 -a 0 -i 11 -k AGT
+ -t 4.741105888 -s 1 -d -1 -p cbr -e 512 -c 2 -a 0 -i 12 -k AGT 
- -t 4.741105888 -s 1 -d -1 -p cbr -e 512 -c 2 -a 0 -i 12 -k AGT
h -t 4.741105888 -s 1 -d -1 -p cbr -e 512 -c 2 -a 0 -i 12 -k AGT
r -t 4.746735055 -s 2 -d 2 -p cbr -e 512 -c 2 -a 0 -i 12 -k AGT
+ -t 5.045986233 -s 1 -d -1 -p cbr -e 512 -c 2 -a 0 -i 13 -k AGT 
- -t 5.045986233 -s 1 -d -1 -p cbr -e 512 -c 2 -a 0 -i 13 -k AGT
h -t 5.045986233 -s 1 -d -1 -p cbr -e 512 -c 2 -a 0 -i 13 -k AGT
r -t 5.051695359 -s 2 -d 2 -p cbr -e 512 -c 2 -a 0 -i 13 -k AGT
+ -t 5.343788314 -s 1 -d -1 -p cbr -e 512 -c 2 -a 0 -i 14 -k AGT 
- -t 5.343788314 -s 1 -d -1 -p cbr -e 512 -c 2 -a 0 -i 14 -k AGT
h -t 5.343788314 -s 1 -d -1 -p cbr -e 512 -c 2 -a 0 -i 14 -k AGT
r -t 5.349477400 -s 2 -d 2 -p cbr -e 512 -c 2 -a 0 -i 14 -k AGT
+ -t 5.655207439 -s 1 -d -1 -p cbr -e 512 -c 2 -a 0 -i 15 -k AGT 
- -t 5.655207439 -s 1 -d -1 -p cbr -e 512 -c 2 -a 0 -i 15 -k AGT
h -t 5.655207439 -s 1 -d -1 -p cbr -e 512 -c 2 -a 0 -i 15 -k AGT
r -t 5.661036484 -s 2 -d 2 -p cbr -e 512 -c 2 -a 0 -i 15 -k AGT
+ -t 5.887208476 -s 1 -d -1 -p cbr -e 512 -c 2 -a 0 -i 16 -k AGT 
- -t 5.887208476 -s 1 -d -1 -p cbr -e 512 -c 2 -a 0 -i 16 -k AGT
h -t 5.887208476 -s 1 -d -1 -p cbr -e 512 -c 2 -a 0 -i 16 -k AGT
r -t 5.893157490 -s 2 -d 2 -p cbr -e 512 -c 2 -a 0 -i 16 -k AGT
+ -t 6.076210616 -s 1 -d -1 -p cbr -e 512 -c 2 -a 0 -i 17 -k AGT 
- -t 6.076210616 -s 1 -d -1 -p cbr -e 512 -c 2 -a 0 -i 17 -k AGT
h -t 6.076210616 -s 1 -d -1 -p cbr -e 512 -c 2 -a 0 -i 17 -k AGT
r -t 6.081819605 -s 2 -d 2 -p cbr -e 512 -c 2 -a 0 -i 17 -k AGT
+ -t 6.404309420 -s 1 -d -1 -p cbr -e 512 -c 2 -a 0 -i 18 -k AGT 
- -t 6.404309420 -s 1 -d -1 -p cbr -e 512 -c 2 -a 0 -i 18 -k AGT
h -t 6.404309420 -s 1 -d -1 -p cbr -e 512 -c 2 -a 0 -i 18 -k AGT
r -t 6.410298366 -s 2 -d 2 -p cbr -e 512 -c 2 -a 0 -i 18 -k AGT
+ -t 6.775500125 -s 1 -d -1 -p cbr -e 512 -c 2 -a 0 -i 19 -k AGT 
- -t 6.775500125 -s 1 -d -1 -p cbr -e 512 -c 2 -a 0 -i 19 -k AGT
h -t 6.775500125 -s 1 -d -1 -p cbr -e 512 -c 2 -a 0 -i 19 -k AGT
r -t 6.780969021 -s 2 -d 2 -p cbr -e 512 -c 2 -a 0 -i 19 -k AGT
+ -t 7.132807438 -s 1 -d -1 -p cbr -e 512 -c 2 -a 0 -i 20 -k AGT 
- -t 7.132807438 -s 1 -d -1 -p cbr -e 512 -c 2 -a 0 -i 20 -k AGT
h -t 7.132807438 -s 1 -d -1 -p cbr -e 512 -c 2 -a 0 -i 20 -k AGT
r -t 7.138656287 -s 2 -d 2 -p cbr -e 512 -c 2 -a 0 -i 20 -k AGT
+ -t 7.319885520 -s 1 -d -1 -p cbr -e 512 -c 2 -a 0 -i 21 -k AGT 
- -t 7.319885520 -s 1 -d -1 -p cbr -e 512 -c 2 -a 0 -i 21 -k AGT
h -t 7.319885520 -s 1 -d -1 -p cbr -e 512 -c 2 -a 0 -i 21 -k AGT
r -t 7.325914344 -s 2 -d 2 -p cbr -e 512 -c 2 -a 0 -i 21 -k AGT
+ -t 7.471135890 -s 1 -d -1 -p cbr -e 512 -c 2 -a 0 -i 22 -k AGT 
- -t 7.471135890 -s 1 -d -1 -p cbr -e 512 -c 2 -a 0 -i 22 -k AGT
h -t 7.471135890 -s 1 -d -1 -p cbr -e 512 -c 2 -a 0 -i 22 -k AGT
r -t 7.476684694 -s 2 -d 2 -p cbr -e 512 -c 2 -a 0 -i 22 -k AGT
+ -t 7.639496532 -s 1 -d -1 -p cbr -e 512 -c 2 -a 0 -i 23 -k AGT 
- -t 7.639496532 -s 1 -d -1 -p cbr -e 512 -c 2 -a 0 -i 23 -k AGT
h -t 7.639496532 -s 1 -d -1 -p cbr -e 512 -c 2 -a 0 -i 23 -k AGT
r -t 7.645065314 -s 2 -d 2 -p cbr -e 512 -c 2 -a 0 -i 23 -k AGT
+ -t 7.703020315 -s 7 -d -1 -p cbr -e 512 -c 2 -a 0 -i 24 -k AGT 
- -t 7.703020315 -s 7 -d -1 -p cbr -e 512 -c 2 -a 0 -i 24 -k AGT
h -t 7.703020315 -s 7 -d -1 -p cbr -e 512 -c 2 -a 0 -i 24 -k AGT
r -t 7.725526983 -s 9 -d 9 -p cbr -e 512 -c 2 -a 0 -i 24 -k AGT
+ -t 7.873317638 -s 1 -d -1 -p cbr -e 512 -c 2 -a 0 -i 28 -k AGT 
- -t 7.873317638 -s 1 -d -1 -p cbr -e 512 -c 2 -a 0 -i 28 -k AGT
h -t 7.873317638 -s 1 -d -1 -p cbr -e 512 -c 2 -a 0 -i 28 -k AGT
r -t 7.879166389 -s 2 -d 2 -p cbr -e 512 -c 2 -a 0 -i 28 -k AGT
+ -t 7.893576398 -s 7 -d -1 -p cbr -e 512 -c 2 -a 0 -i 29 -k AGT 
- -t 7.893576398 -s 7 -d -1 -p cbr -e 512 -c 2 -a 0 -i 29 -k AGT
h -t 7.893576398 -s 7 -d -1 -p cbr -e 512 -c 2 -a 0 -i 29 -k AGT
r -t 7.899454421 -s 9 -d 9 -p cbr -e 512 -c 2 -a 0 -i 29 -k AGT
+ -t 8.097083235 -s 1 -d -1 -p cbr -e 512 -c 2 -a 0 -i 30 -k AGT 
- -t 8.097083235 -s 1 -d -1 -p cbr -e 512 -c 2 -a 0 -i 30 -k AGT
h -t 8.097083235 -s 1 -d -1 -p cbr -e 512 -c 2 -a 0 -i 30 -k AGT
r -t 8.103079955 -s 2 -d 2 -p cbr -e 512 -c 2 -a 0 -i 30 -k AGT
+ -t 8.219655619 -s 7 -d -1 -p cbr -e 512 -c 2 -a 0 -i 31 -k AGT 
- -t 8.219655619 -s 7 -d -1 -p cbr -e 512 -c 2 -a 0 -i 31 -k AGT
h -t 8.219655619 -s 7 -d -1 -p cbr -e 512 -c 2 -a 0 -i 31 -k AGT
r -t 8.225393632 -s 9 -d 9 -p cbr -e 512 -c 2 -a 0 -i 31 -k AGT
+ -t 8.355604576 -s 7 -d -1 -p cbr -e 512 -c 2 -a 0 -i 32 -k AGT 
- -t 8.355604576 -s 7 -d -1 -p cbr -e 512 -c 2 -a 0 -i 32 -k AGT
h -t 8.355604576 -s 7 -d -1 -p cbr -e 512 -c 2 -a 0 -i 32 -k AGT
r -t 8.361614585 -s 9 -d 9 -p cbr -e 512 -c 2 -a 0 -i 32 -k AGT
+ -t 8.391376273 -s 1 -d -1 -p cbr -e 512 -c 2 -a 0 -i 33 -k AGT 
- -t 8.391376273 -s 1 -d -1 -p cbr -e 512 -c 2 -a 0 -i 33 -k AGT
h -t 8.391376273 -s 1 -d -1 -p cbr -e 512 -c 2 -a 0 -i 33 -k AGT
r -t 8.397044955 -s 2 -d 2 -p cbr -e 512 -c 2 -a 0 -i 33 -k AGT
+ -t 8.519167326 -s 1 -d -1 -p cbr -e 512 -c 2 -a 0 -i 34 -k AGT 
- -t 8.519167326 -s 1 -d -1 -p cbr -e 512 -c 2 -a 0 -i 34 -k AGT
h -t 8.519167326 -s 1 -d -1 -p cbr -e 512 -c 2 -a 0 -i 34 -k AGT
r -t 8.525155991 -s 2 -d 2 -p cbr -e 512 -c 2 -a 0 -i 34 -k AGT
+ -t 8.562412611 -s 7 -d -1 -p cbr -e 512 -c 2 -a 0 -i 35 -k AGT 
- -t 8.562412611 -s 7 -d -1 -p cbr -e 512 -c 2 -a 0 -i 35 -k AGT
h -t 8.562412611 -s 7 -d -1 -p cbr -e 512 -c 2 -a 0 -i 35 -k AGT
r -t 8.568422614 -s 9 -d 9 -p cbr -e 512 -c 2 -a 0 -i 35 -k AGT
+ -t 8.668756792 -s 1 -d -1 -p cbr -e 512 -c 2 -a 0 -i 36 -k AGT 
- -t 8.668756792 -s 1 -d -1 -p cbr -e 512 -c 2 -a 0 -i 36 -k AGT
h -t 8.668756792 -s 1 -d -1 -p cbr -e 512 -c 2 -a 0 -i 36 -k AGT
r -t 8.674205437 -s 2 -d 2 -p cbr -e 512 -c 2 -a 0 -i 36 -k AGT
+ -t 8.790550777 -s 7 -d -1 -p cbr -e 512 -c 2 -a 0 -i 37 -k AGT 
- -t 8.790550777 -s 7 -d -1 -p cbr -e 512 -c 2 -a 0 -i 37 -k AGT
h -t 8.790550777 -s 7 -d -1 -p cbr -e 512 -c 2 -a 0 -i 37 -k AGT
r -t 8.796120774 -s 9 -d 9 -p cbr -e 512 -c 2 -a 0 -i 37 -k AGT
+ -t 8.973687054 -s 7 -d -1 -p cbr -e 512 -c 2 -a 0 -i 38 -k AGT 
- -t 8.973687054 -s 7 -d -1 -p cbr -e 512 -c 2 -a 0 -i 38 -k AGT
h -t 8.973687054 -s 7 -d -1 -p cbr -e 512 -c 2 -a 0 -i 38 -k AGT
r -t 8.979637046 -s 9 -d 9 -p cbr -e 512 -c 2 -a 0 -i 38 -k AGT
+ -t 8.990744628 -s 1 -d -1 -p cbr -e 512 -c 2 -a 0 -i 39 -k AGT 
- -t 8.990744628 -s 1 -d -1 -p cbr -e 512 -c 2 -a 0 -i 39 -k AGT
h -t 8.990744628 -s 1 -d -1 -p cbr -e 512 -c 2 -a 0 -i 39 -k AGT
r -t 8.996233231 -s 2 -d 2 -p cbr -e 512 -c 2 -a 0 -i 39 -k AGT
+ -t 9.171846486 -s 1 -d -1 -p cbr -e 512 -c 2 -a 0 -i 40 -k AGT 
- -t 9.171846486 -s 1 -d -1 -p cbr -e 512 -c 2 -a 0 -i 40 -k AGT
h -t 9.171846486 -s 1 -d -1 -p cbr -e 512 -c 2 -a 0 -i 40 -k AGT
r -t 9.177295065 -s 2 -d 2 -p cbr -e 512 -c 2 -a 0 -i 40 -k AGT
+ -t 9.342605871 -s 7 -d -1 -p cbr -e 512 -c 2 -a 0 -i 41 -k AGT 
- -t 9.342605871 -s 7 -d -1 -p cbr -e 512 -c 2 -a 0 -i 41 -k AGT
h -t 9.342605871 -s 7 -d -1 -p cbr -e 512 -c 2 -a 0 -i 41 -k AGT
r -t 9.348255854 -s 9 -d 9 -p cbr -e 512 -c 2 -a 0 -i 41 -k AGT
+ -t 9.470696235 -s 1 -d -1 -p cbr -e 512 -c 2 -a 0 -i 42 -k AGT 
- -t 9.470696235 -s 1 -d -1 -p cbr -e 512 -c 2 -a 0 -i 42 -k AGT
h -t 9.470696235 -s 1 -d -1 -p cbr -e 512 -c 2 -a 0 -i 42 -k AGT
r -t 9.476484775 -s 2 -d 2 -p cbr -e 512 -c 2 -a 0 -i 42 -k AGT
+ -t 9.658387690 -s 7 -d -1 -p cbr -e 512 -c 2 -a 0 -i 43 -k AGT 
- -t 9.658387690 -s 7 -d -1 -p cbr -e 512 -c 2 -a 0 -i 43 -k AGT
h -t 9.658387690 -s 7 -d -1 -p cbr -e 512 -c 2 -a 0 -i 43 -k AGT
r -t 9.664297665 -s 9 -d 9 -p cbr -e 512 -c 2 -a 0 -i 43 -k AGT
+ -t 9.708800829 -s 1 -d -1 -p cbr -e 512 -c 2 -a 0 -i 44 -k AGT 
- -t 9.708800829 -s 1 -d -1 -p cbr -e 512 -c 2 -a 0 -i 44 -k AGT
h -t 9.708800829 -s 1 -d -1 -p cbr -e 512 -c 2 -a 0 -i 44 -k AGT
r -t 9.714449337 -s 2 -d 2 -p cbr -e 512 -c 2 -a 0 -i 44 -k AGT
+ -t 9.820454614 -s 7 -d -1 -p cbr -e 512 -c 2 -a 0 -i 45 -k AGT 
- -t 9.820454614 -s 7 -d -1 -p cbr -e 512 -c 2 -a 0 -i 45 -k AGT
h -t 9.820454614 -s 7 -d -1 -p cbr -e 512 -c 2 -a 0 -i 45 -k AGT
r -t 9.826424585 -s 9 -d 9 -p cbr -e 512 -c 2 -a 0 -i 45 -k AGT
+ -t 9.855317472 -s 1 -d -1 -p cbr -e 512 -c 2 -a 0 -i 46 -k AGT 
- -t 9.855317472 -s 1 -d -1 -p cbr -e 512 -c 2 -a 0 -i 46 -k AGT
h -t 9.855317472 -s 1 -d -1 -p cbr -e 512 -c 2 -a 0 -i 46 -k AGT
r -t 9.861185961 -s 2 -d 2 -p cbr -e 512 -c 2 -a 0 -i 46 -k AGT
+ -t 10.140626812 -s 1 -d -1 -p cbr -e 512 -c 2 -a 0 -i 47 -k AGT 
- -t 10.140626812 -s 1 -d -1 -p cbr -e 512 -c 2 -a 0 -i 47 -k AGT
h -t 10.140626812 -s 1 -d -1 -p cbr -e 512 -c 2 -a 0 -i 47 -k AGT
r -t 10.146095263 -s 2 -d 2 -p cbr -e 512 -c 2 -a 0 -i 47 -k AGT
+ -t 10.184422752 -s 7 -d -1 -p cbr -e 512 -c 2 -a 0 -i 48 -k AGT 
- -t 10.184422752 -s 7 -d -1 -p cbr -e 512 -c 2 -a 0 -i 48 -k AGT
h -t 10.184422752 -s 7 -d -1 -p cbr -e 512 -c 2 -a 0 -i 48 -k AGT
r -t 10.190352714 -s 9 -d 9 -p cbr -e 512 -c 2 -a 0 -i 48 -k AGT
+ -t 10.316366473 -s 1 -d -1 -p cbr -e 512 -c 2 -a 0 -i 49 -k AGT 
- -t 10.316366473 -s 1 -d -1 -p cbr -e 512 -c 2 -a 0 -i 49 -k AGT
h -t 10.316366473 -s 1 -d -1 -p cbr -e 512 -c 2 -a 0 -i 49 -k AGT
r -t 10.321954902 -s 2 -d 2 -p cbr -e 512 -c 2 -a 0 -i 49 -k AGT
+ -t 10.545151651 -s 7 -d -1 -p cbr -e 512 -c 2 -a 0 -i 50 -k AGT 
- -t 10.545151651 -s 7 -d -1 -p cbr -e 512 -c 2 -a 0 -i 50 -k AGT
h -t 10.545151651 -s 7 -d -1 -p cbr -e 512 -c 2 -a 0 -i 50 -k AGT
r -t 10.550781605 -s 9 -d 9 -p cbr -e 512 -c 2 -a 0 -i 50 -k AGT
+ -t 10.595570276 -s 1 -d -1 -p cbr -e 512 -c 2 -a 0 -i 51 -k AGT 
- -t 10.595570276 -s 1 -d -1 -p cbr -e 512 -c 2 -a 0 -i 51 -k AGT
h -t 10.595570276 -s 1 -d -1 -p cbr -e 512 -c 2 -a 0 -i 51 -k AGT
r -t 10.601558668 -s 2 -d 2 -p cbr -e 512 -c 2 -a 0 -i 51 -k AGT
+ -t 10.787112493 -s 7 -d -1 -p cbr -e 512 -c 2 -a 0 -i 52 -k AGT 
- -t 10.787112493 -s 7 -d -1 -p cbr -e 512 -c 2 -a 0 -i 52 -k AGT
h -t 10.787112493 -s 7 -d -1 -p cbr -e 512 -c 2 -a 0 -i 52 -k AGT
r -t 10.793102442 -s 9 -d 9 -p cbr -e 512 -c 2 -a 0 -i 52 -k AGT
+ -t 10.829672988 -s 1 -d -1 -p cbr -e 512 -c 2 -a 0 -i 53 -k AGT 
- -t 10.829672988 -s 1 -d -1 -p cbr -e 512 -c 2 -a 0 -i 53 -k AGT
h -t 10.829672988 -s 1 -d -1 -p cbr -e 512 -c 2 -a 0 -i 53 -k AGT
r -t 10.835121350 -s 2 -d 2 -p cbr -e 512 -c 2 -a 0 -i 53 -k AGT
+ -t 11.093516139 -s 7 -d -1 -p cbr -e 512 -c 2 -a 0 -i 54 -k AGT 
- -t 11.093516139 -s 7 -d -1 -p cbr -e 512 -c 2 -a 0 -i 54 -k AGT
h -t 11.093516139 -s 7 -d -1 -p cbr -e 512 -c 2 -a 0 -i 54 -k AGT
r -t 11.099406082 -s 9 -d 9 -p cbr -e 512 -c 2 -a 0 -i 54 -k AGT
+ -t 11.148317712 -s 1 -d -1 -p cbr -e 512 -c 2 -a 0 -i 55 -k AGT 
- -t 11.148317712 -s 1 -d -1 -p cbr -e 512 -c 2 -a 0 -i 55 -k AGT
h -t 11.148317712 -s 1 -d -1 -p cbr -e 512 -c 2 -a 0 -i 55 -k AGT
r -t 11.154206033 -s 2 -d 2 -p cbr -e 512 -c 2 -a 0 -i 55 -k AGT
+ -t 11.283191489 -s 1 -d -1 -p cbr -e 512 -c 2 -a 0 -i 56 -k AGT 
- -t 11.283191489 -s 1 -d -1 -p cbr -e 512 -c 2 -a 0 -i 56 -k AGT
h -t 11.283191489 -s 1 -d -1 -p cbr -e 512 -c 2 -a 0 -i 56 -k AGT
r -t 11.288939792 -s 2 -d 2 -p cbr -e 512 -c 2 -a 0 -i 56 -k AGT
+ -t 11.323182097 -s 7 -d -1 -p cbr -e 512 -c 2 -a 0 -i 57 -k AGT 
- -t 11.323182097 -s 7 -d -1 -p cbr -e 512 -c 2 -a 0 -i 57 -k AGT
h -t 11.323182097 -s 7 -d -1 -p cbr -e 512 -c 2 -a 0 -i 57 -k AGT
r -t 11.329192037 -s 9 -d 9 -p cbr -e 512 -c 2 -a 0 -i 57 -k AGT
+ -t 11.468277719 -s 1 -d -1 -p cbr -e 512 -c 2 -a 0 -i 58 -k AGT 
- -t 11.468277719 -s 1 -d -1 -p cbr -e 512 -c 2 -a 0 -i 58 -k AGT
h -t 11.468277719 -s 1 -d -1 -p cbr -e 512 -c 2 -a 0 -i 58 -k AGT
r -t 11.473985999 -s 2 -d 2 -p cbr -e 512 -c 2 -a 0 -i 58 -k AGT
+ -t 11.600831985 -s 7 -d -1 -p cbr -e 512 -c 2 -a 0 -i 59 -k AGT 
- -t 11.600831985 -s 7 -d -1 -p cbr -e 512 -c 2 -a 0 -i 59 -k AGT
h -t 11.600831985 -s 7 -d -1 -p cbr -e 512 -c 2 -a 0 -i 59 -k AGT
r -t 11.606801920 -s 9 -d 9 -p cbr -e 512 -c 2 -a 0 -i 59 -k AGT
+ -t 11.732510939 -s 7 -d -1 -p cbr -e 512 -c 2 -a 0 -i 60 -k AGT 
- -t 11.732510939 -s 7 -d -1 -p cbr -e 512 -c 2 -a 0 -i 60 -k AGT
h -t 11.732510939 -s 7 -d -1 -p cbr -e 512 -c 2 -a 0 -i 60 -k AGT
r -t 11.738260872 -s 9 -d 9 -p cbr -e 512 -c 2 -a 0 -i 60 -k AGT
+ -t 11.836181831 -s 1 -d -1 -p cbr -e 512 -c 2 -a 0 -i 61 -k AGT 
- -t 11.836181831 -s 1 -d -1 -p cbr -e 512 -c 2 -a 0 -i 61 -k AGT
h -t 11.836181831 -s 1 -d -1 -p cbr -e 512 -c 2 -a 0 -i 61 -k AGT
r -t 11.842170065 -s 2 -d 2 -p cbr -e 512 -c 2 -a 0 -i 61 -k AGT
+ -t 11.907835823 -s 7 -d -1 -p cbr -e 512 -c 2 -a 0 -i 62 -k AGT 
- -t 11.907835823 -s 7 -d -1 -p cbr -e 512 -c 2 -a 0 -i 62 -k AGT
h -t 11.907835823 -s 7 -d -1 -p cbr -e 512 -c 2 -a 0 -i 62 -k AGT
r -t 11.913425753 -s 9 -d 9 -p cbr -e 512 -c 2 -a 0 -i 62 -k AGT
+ -t 12.034345606 -s 1 -d -1 -p cbr -e 512 -c 2 -a 0 -i 63 -k AGT 
- -t 12.034345606 -s 1 -d -1 -p cbr -e 512 -c 2 -a 0 -i 63 -k AGT
h -t 12.034345606 -s 1 -d -1 -p cbr -e 512 -c 2 -a 0 -i 63 -k AGT
r -t 12.039873815 -s 2 -d 2 -p cbr -e 512 -c 2 -a 0 -i 63 -k AGT
+ -t 12.172690533 -s 7 -d -1 -p cbr -e 512 -c 2 -a 0 -i 64 -k AGT 
- -t 12.172690533 -s 7 -d -1 -p cbr -e 512 -c 2 -a 0 -i 64 -k AGT
h -t 12.172690533 -s 7 -d -1 -p cbr -e 512 -c 2 -a 0 -i 64 -k AGT
r -t 12.178360458 -s 9 -d 9 -p cbr -e 512 -c 2 -a 0 -i 64 -k AGT
+ -t 12.197387294 -s 1 -d -1 -p cbr -e 512 -c 2 -a 0 -i 65 -k AGT 
- -t 12.197387294 -s 1 -d -1 -p cbr -e 512 -c 2 -a 0 -i 65 -k AGT
h -t 12.197387294 -s 1 -d -1 -p cbr -e 512 -c 2 -a 0 -i 65 -k AGT
r -t 12.203355483 -s 2 -d 2 -p cbr -e 512 -c 2 -a 0 -i 65 -k AGT
+ -t 12.435803851 -s 7 -d -1 -p cbr -e 512 -c 2 -a 0 -i 66 -k AGT 
- -t 12.435803851 -s 7 -d -1 -p cbr -e 512 -c 2 -a 0 -i 66 -k AGT
h -t 12.435803851 -s 7 -d -1 -p cbr -e 512 -c 2 -a 0 -i 66 -k AGT
r -t 12.441473773 -s 9 -d 9 -p cbr -e 512 -c 2 -a 0 -i 66 -k AGT
+ -t 12.568165655 -s 1 -d -1 -p cbr -e 512 -c 2 -a 0 -i 67 -k AGT 
- -t 12.568165655 -s 1 -d -1 -p cbr -e 512 -c 2 -a 0 -i 67 -k AGT
h -t 12.568165655 -s 1 -d -1 -p cbr -e 512 -c 2 -a 0 -i 67 -k AGT
r -t 12.573793802 -s 2 -d 2 -p cbr -e 512 -c 2 -a 0 -i 67 -k AGT
+ -t 12.602785675 -s 7 -d -1 -p cbr -e 512 -c 2 -a 0 -i 68 -k AGT 
- -t 12.602785675 -s 7 -d -1 -p cbr -e 512 -c 2 -a 0 -i 68 -k AGT
h -t 12.602785675 -s 7 -d -1 -p cbr -e 512 -c 2 -a 0 -i 68 -k AGT
r -t 12.608455594 -s 9 -d 9 -p cbr -e 512 -c 2 -a 0 -i 68 -k AGT
+ -t 12.805187524 -s 1 -d -1 -p cbr -e 512 -c 2 -a 0 -i 69 -k AGT 
- -t 12.805187524 -s 1 -d -1 -p cbr -e 512 -c 2 -a 0 -i 69 -k AGT
h -t 12.805187524 -s 1 -d -1 -p cbr -e 512 -c 2 -a 0 -i 69 -k AGT
r -t 12.810755647 -s 2 -d 2 -p cbr -e 512 -c 2 -a 0 -i 69 -k AGT
+ -t 12.957097448 -s 7 -d -1 -p cbr -e 512 -c 2 -a 0 -i 70 -k AGT 
- -t 12.957097448 -s 7 -d -1 -p cbr -e 512 -c 2 -a 0 -i 70 -k AGT
h -t 12.957097448 -s 7 -d -1 -p cbr -e 512 -c 2 -a 0 -i 70 -k AGT
r -t 12.962647364 -s 9 -d 9 -p cbr -e 512 -c 2 -a 0 -i 70 -k AGT
+ -t 12.992751478 -s 1 -d -1 -p cbr -e 512 -c 2 -a 0 -i 71 -k AGT 
- -t 12.992751478 -s 1 -d -1 -p cbr -e 512 -c 2 -a 0 -i 71 -k AGT
h -t 12.992751478 -s 1 -d -1 -p cbr -e 512 -c 2 -a 0 -i 71 -k AGT
r -t 12.998679584 -s 2 -d 2 -p cbr -e 512 -c 2 -a 0 -i 71 -k AGT
+ -t 13.235146447 -s 7 -d -1 -p cbr -e 512 -c 2 -a 0 -i 72 -k AGT 
- -t 13.235146447 -s 7 -d -1 -p cbr -e 512 -c 2 -a 0 -i 72 -k AGT
h -t 13.235146447 -s 7 -d -1 -p cbr -e 512 -c 2 -a 0 -i 72 -k AGT
r -t 13.241044359 -s 9 -d 9 -p cbr -e 512 -c 2 -a 0 -i 72 -k AGT
+ -t 13.340696732 -s 1 -d -1 -p cbr -e 512 -c 2 -a 0 -i 73 -k AGT 
- -t 13.340696732 -s 1 -d -1 -p cbr -e 512 -c 2 -a 0 -i 73 -k AGT
h -t 13.340696732 -s 1 -d -1 -p cbr -e 512 -c 2 -a 0 -i 73 -k AGT
r -t 13.346452818 -s 2 -d 2 -p cbr -e 512 -c 2 -a 0 -i 73 -k AGT
+ -t 13.469858706 -s 7 -d -1 -p cbr -e 512 -c 2 -a 0 -i 74 -k AGT 
- -t 13.469858706 -s 7 -d -1 -p cbr -e 512 -c 2 -a 0 -i 74 -k AGT
h -t 13.469858706 -s 7 -d -1 -p cbr -e 512 -c 2 -a 0 -i 74 -k AGT
r -t 13.475328616 -s 9 -d 9 -p cbr -e 512 -c 2 -a 0 -i 74 -k AGT
+ -t 13.514069977 -s 1 -d -1 -p cbr -e 512 -c 2 -a 0 -i 75 -k AGT 
- -t 13.514069977 -s 1 -d -1 -p cbr -e 512 -c 2 -a 0 -i 75 -k AGT
h -t 13.514069977 -s 1 -d -1 -p cbr -e 512 -c 2 -a 0 -i 75 -k AGT
r -t 13.519518063 -s 2 -d 2 -p cbr -e 512 -c 2 -a 0 -i 75 -k AGT
+ -t 13.719533113 -s 1 -d -1 -p cbr -e 512 -c 2 -a 0 -i 76 -k AGT 
- -t 13.719533113 -s 1 -d -1 -p cbr -e 512 -c 2 -a 0 -i 76 -k AGT
h -t 13.719533113 -s 1 -d -1 -p cbr -e 512 -c 2 -a 0 -i 76 -k AGT
r -t 13.725281205 -s 2 -d 2 -p cbr -e 512 -c 2 -a 0 -i 76 -k AGT
+ -t 13.798160706 -s 7 -d -1 -p cbr -e 512 -c 2 -a 0 -i 77 -k AGT 
- -t 13.798160706 -s 7 -d -1 -p cbr -e 512 -c 2 -a 0 -i 77 -k AGT
h -t 13.798160706 -s 7 -d -1 -p cbr -e 512 -c 2 -a 0 -i 77 -k AGT
r -t 13.803670613 -s 9 -d 9 -p cbr -e 512 -c 2 -a 0 -i 77 -k AGT
+ -t 13.991012492 -s 1 -d -1 -p cbr -e 512 -c 2 -a 0 -i 78 -k AGT 
- -t 13.991012492 -s 1 -d -1 -p cbr -e 512 -c 2 -a 0 -i 78 -k AGT
h -t 13.991012492 -s 1 -d -1 -p cbr -e 512 -c 2 -a 0 -i 78 -k AGT
r -t 13.997060602 -s 2 -d 2 -p cbr -e 512 -c 2 -a 0 -i 78 -k AGT
+ -t 14.087099177 -s 7 -d -1 -p cbr -e 512 -c 2 -a 0 -i 79 -k AGT 
- -t 14.087099177 -s 7 -d -1 -p cbr -e 512 -c 2 -a 0 -i 79 -k AGT
h -t 14.087099177 -s 7 -d -1 -p cbr -e 512 -c 2 -a 0 -i 79 -k AGT
r -t 14.093109081 -s 9 -d 9 -p cbr -e 512 -c 2 -a 0 -i 79 -k AGT
+ -t 14.192757103 -s 1 -d -1 -p cbr -e 512 -c 2 -a 0 -i 80 -k AGT 
- -t 14.192757103 -s 1 -d -1 -p cbr -e 512 -c 2 -a 0 -i 80 -k AGT
h -t 14.192757103 -s 1 -d -1 -p cbr -e 512 -c 2 -a 0 -i 80 -k AGT
r -t 14.198465232 -s 2 -d 2 -p cbr -e 512 -c 2 -a 0 -i 80 -k AGT
+ -t 14.303373369 -s 7 -d -1 -p cbr -e 512 -c 2 -a 0 -i 81 -k AGT 
- -t 14.303373369 -s 7 -d -1 -p cbr -e 512 -c 2 -a 0 -i 81 -k AGT
h -t 14.303373369 -s 7 -d -1 -p cbr -e 512 -c 2 -a 0 -i 81 -k AGT
r -t 14.309023273 -s 9 -d 9 -p cbr -e 512 -c 2 -a 0 -i 81 -k AGT
+ -t 14.347780282 -s 1 -d -1 -p cbr -e 512 -c 2 -a 0 -i 82 -k AGT 
- -t 14.347780282 -s 1 -d -1 -p cbr -e 512 -c 2 -a 0 -i 82 -k AGT
h -t 14.347780282 -s 1 -d -1 -p cbr -e 512 -c 2 -a 0 -i 82 -k AGT
r -t 14.353468427 -s 2 -d 2 -p cbr -e 512 -c 2 -a 0 -i 82 -k AGT
+ -t 14.587703389 -s 1 -d -1 -p cbr -e 512 -c 2 -a 0 -i 83 -k AGT 
- -t 14.587703389 -s 1 -d -1 -p cbr -e 512 -c 2 -a 0 -i 83 -k AGT
h -t 14.587703389 -s 1 -d -1 -p cbr -e 512 -c 2 -a 0 -i 83 -k AGT
r -t 14.593571561 -s 2 -d 2 -p cbr -e 512 -c 2 -a 0 -i 83 -k AGT
+ -t 14.597880169 -s 7 -d -1 -p cbr -e 512 -c 2 -a 0 -i 84 -k AGT 
- -t 14.597880169 -s 7 -d -1 -p cbr -e 512 -c 2 -a 0 -i 84 -k AGT
h -t 14.597880169 -s 7 -d -1 -p cbr -e 512 -c 2 -a 0 -i 84 -k AGT
r -t 14.603910071 -s 9 -d 9 -p cbr -e 512 -c 2 -a 0 -i 84 -k AGT
+ -t 14.767549768 -s 7 -d -1 -p cbr -e 512 -c 2 -a 0 -i 85 -k AGT 
- -t 14.767549768 -s 7 -d -1 -p cbr -e 512 -c 2 -a 0 -i 85 -k AGT
h -t 14.767549768 -s 7 -d -1 -p cbr -e 512 -c 2 -a 0 -i 85 -k AGT
r -t 14.773519669 -s 9 -d 9 -p cbr -e 512 -c 2 -a 0 -i 85 -k AGT
n -t 14.869843 -s 2 -x 144.236526 -y 221.885757 -U 0.000000 -V 0.000000 -T 0.000000
+ -t 14.914188411 -s 1 -d -1 -p cbr -e 512 -c 2 -a 0 -i 86 -k AGT 
- -t 14.914188411 -s 1 -d -1 -p cbr -e 512 -c 2 -a 0 -i 86 -k AGT
h -t 14.914188411 -s 1 -d -1 -p cbr -e 512 -c 2 -a 0 -i 86 -k AGT
r -t 14.920116618 -s 2 -d 2 -p cbr -e 512 -c 2 -a 0 -i 86 -k AGT
+ -t 15.012376805 -s 7 -d -1 -p cbr -e 512 -c 2 -a 0 -i 87 -k AGT 
- -t 15.012376805 -s 7 -d -1 -p cbr -e 512 -c 2 -a 0 -i 87 -k AGT
h -t 15.012376805 -s 7 -d -1 -p cbr -e 512 -c 2 -a 0 -i 87 -k AGT
r -t 15.018006705 -s 9 -d 9 -p cbr -e 512 -c 2 -a 0 -i 87 -k AGT
+ -t 15.069514873 -s 1 -d -1 -p cbr -e 512 -c 2 -a 0 -i 88 -k AGT 
- -t 15.069514873 -s 1 -d -1 -p cbr -e 512 -c 2 -a 0 -i 88 -k AGT
h -t 15.069514873 -s 1 -d -1 -p cbr -e 512 -c 2 -a 0 -i 88 -k AGT
r -t 15.075083083 -s 2 -d 2 -p cbr -e 512 -c 2 -a 0 -i 88 -k AGT
+ -t 15.330217778 -s 7 -d -1 -p cbr -e 512 -c 2 -a 0 -i 89 -k AGT 
- -t 15.330217778 -s 7 -d -1 -p cbr -e 512 -c 2 -a 0 -i 89 -k AGT
h -t 15.330217778 -s 7 -d -1 -p cbr -e 512 -c 2 -a 0 -i 89 -k AGT
r -t 15.335967678 -s 9 -d 9 -p cbr -e 512 -c 2 -a 0 -i 89 -k AGT
+ -t 15.402077552 -s 1 -d -1 -p cbr -e 512 -c 2 -a 0 -i 90 -k AGT 
- -t 15.402077552 -s 1 -d -1 -p cbr -e 512 -c 2 -a 0 -i 90 -k AGT
h -t 15.402077552 -s 1 -d -1 -p cbr -e 512 -c 2 -a 0 -i 90 -k AGT
r -t 15.407545771 -s 2 -d 2 -p cbr -e 512 -c 2 -a 0 -i 90 -k AGT
+ -t 15.498837034 -s 7 -d -1 -p cbr -e 512 -c 2 -a 0 -i 91 -k AGT 
- -t 15.498837034 -s 7 -d -1 -p cbr -e 512 -c 2 -a 0 -i 91 -k AGT
h -t 15.498837034 -s 7 -d -1 -p cbr -e 512 -c 2 -a 0 -i 91 -k AGT
r -t 15.504326933 -s 9 -d 9 -p cbr -e 512 -c 2 -a 0 -i 91 -k AGT
+ -t 15.573391675 -s 1 -d -1 -p cbr -e 512 -c 2 -a 0 -i 92 -k AGT 
- -t 15.573391675 -s 1 -d -1 -p cbr -e 512 -c 2 -a 0 -i 92 -k AGT
h -t 15.573391675 -s 1 -d -1 -p cbr -e 512 -c 2 -a 0 -i 92 -k AGT
r -t 15.578879899 -s 2 -d 2 -p cbr -e 512 -c 2 -a 0 -i 92 -k AGT
+ -t 15.695453676 -s 7 -d -1 -p cbr -e 512 -c 2 -a 0 -i 93 -k AGT 
- -t 15.695453676 -s 7 -d -1 -p cbr -e 512 -c 2 -a 0 -i 93 -k AGT
h -t 15.695453676 -s 7 -d -1 -p cbr -e 512 -c 2 -a 0 -i 93 -k AGT
r -t 15.701483575 -s 9 -d 9 -p cbr -e 512 -c 2 -a 0 -i 93 -k AGT
+ -t 15.791653157 -s 1 -d -1 -p cbr -e 512 -c 2 -a 0 -i 94 -k AGT 
- -t 15.791653157 -s 1 -d -1 -p cbr -e 512 -c 2 -a 0 -i 94 -k AGT
h -t 15.791653157 -s 1 -d -1 -p cbr -e 512 -c 2 -a 0 -i 94 -k AGT
r -t 15.797241387 -s 2 -d 2 -p cbr -e 512 -c 2 -a 0 -i 94 -k AGT
+ -t 15.942153639 -s 1 -d -1 -p cbr -e 512 -c 2 -a 0 -i 95 -k AGT 
- -t 15.942153639 -s 1 -d -1 -p cbr -e 512 -c 2 -a 0 -i 95 -k AGT
h -t 15.942153639 -s 1 -d -1 -p cbr -e 512 -c 2 -a 0 -i 95 -k AGT
r -t 15.948201875 -s 2 -d 2 -p cbr -e 512 -c 2 -a 0 -i 95 -k AGT
+ -t 16.057398356 -s 7 -d -1 -p cbr -e 512 -c 2 -a 0 -i 96 -k AGT 
- -t 16.057398356 -s 7 -d -1 -p cbr -e 512 -c 2 -a 0 -i 96 -k AGT
h -t 16.057398356 -s 7 -d -1 -p cbr -e 512 -c 2 -a 0 -i 96 -k AGT
r -t 16.063228254 -s 9 -d 9 -p cbr -e 512 -c 2 -a 0 -i 96 -k AGT
+ -t 16.251932609 -s 1 -d -1 -p cbr -e 512 -c 2 -a 0 -i 97 -k AGT 
- -t 16.251932609 -s 1 -d -1 -p cbr -e 512 -c 2 -a 0 -i 97 -k AGT
h -t 16.251932609 -s 1 -d -1 -p cbr -e 512 -c 2 -a 0 -i 97 -k AGT
r -t 16.257720854 -s 2 -d 2 -p cbr -e 512 -c 2 -a 0 -i 97 -k AGT
+ -t 16.351296230 -s 7 -d -1 -p cbr -e 512 -c 2 -a 0 -i 98 -k AGT 
- -t 16.351296230 -s 7 -d -1 -p cbr -e 512 -c 2 -a 0 -i 98 -k AGT
h -t 16.351296230 -s 7 -d -1 -p cbr -e 512 -c 2 -a 0 -i 98 -k AGT
r -t 16.356886130 -s 9 -d 9 -p cbr -e 512 -c 2 -a 0 -i 98 -k AGT
+ -t 16.415615329 -s 1 -d -1 -p cbr -e 512 -c 2 -a 0 -i 99 -k AGT 
- -t 16.415615329 -s 1 -d -1 -p cbr -e 512 -c 2 -a 0 -i 99 -k AGT
h -t 16.415615329 -s 1 -d -1 -p cbr -e 512 -c 2 -a 0 -i 99 -k AGT
r -t 16.421303580 -s 2 -d 2 -p cbr -e 512 -c 2 -a 0 -i 99 -k AGT
+ -t 16.621359477 -s 1 -d -1 -p cbr -e 512 -c 2 -a 0 -i 100 -k AGT 
- -t 16.621359477 -s 1 -d -1 -p cbr -e 512 -c 2 -a 0 -i 100 -k AGT
h -t 16.621359477 -s 1 -d -1 -p cbr -e 512 -c 2 -a 0 -i 100 -k AGT
r -t 16.627247735 -s 2 -d 2 -p cbr -e 512 -c 2 -a 0 -i 100 -k AGT
+ -t 16.645660624 -s 7 -d -1 -p cbr -e 512 -c 2 -a 0 -i 101 -k AGT 
- -t 16.645660624 -s 7 -d -1 -p cbr -e 512 -c 2 -a 0 -i 101 -k AGT
h -t 16.645660624 -s 7 -d -1 -p cbr -e 512 -c 2 -a 0 -i 101 -k AGT
r -t 16.651330524 -s 9 -d 9 -p cbr -e 512 -c 2 -a 0 -i 101 -k AGT
+ -t 16.849832862 -s 7 -d -1 -p cbr -e 512 -c 2 -a 0 -i 102 -k AGT 
- -t 16.849832862 -s 7 -d -1 -p cbr -e 512 -c 2 -a 0 -i 102 -k AGT
h -t 16.849832862 -s 7 -d -1 -p cbr -e 512 -c 2 -a 0 -i 102 -k AGT
r -t 16.855722762 -s 9 -d 9 -p cbr -e 512 -c 2 -a 0 -i 102 -k AGT
n -t 16.869843 -s 2 -x 144.236526 -y 221.885757 -U -2.985640 -V 2.743369 -T 17.458550
+ -t 16.960953038 -s 1 -d -1 -p cbr -e 512 -c 2 -a 0 -i 103 -k AGT 
- -t 16.960953038 -s 1 -d -1 -p cbr -e 512 -c 2 -a 0 -i 103 -k AGT
h -t 16.960953038 -s 1 -d -1 -p cbr -e 512 -c 2 -a 0 -i 103 -k AGT
r -t 16.966541307 -s 2 -d 2 -p cbr -e 512 -c 2 -a 0 -i 103 -k AGT
+ -t 17.097632834 -s 1 -d -1 -p cbr -e 512 -c 2 -a 0 -i 104 -k AGT 
- -t 17.097632834 -s 1 -d -1 -p cbr -e 512 -c 2 -a 0 -i 104 -k AGT
h -t 17.097632834 -s 1 -d -1 -p cbr -e 512 -c 2 -a 0 -i 104 -k AGT
r -t 17.103161107 -s 2 -d 2 -p cbr -e 512 -c 2 -a 0 -i 104 -k AGT
+ -t 17.127106509 -s 7 -d -1 -p cbr -e 512 -c 2 -a 0 -i 105 -k AGT 
- -t 17.127106509 -s 7 -d -1 -p cbr -e 512 -c 2 -a 0 -i 105 -k AGT
h -t 17.127106509 -s 7 -d -1 -p cbr -e 512 -c 2 -a 0 -i 105 -k AGT
r -t 17.132696411 -s 9 -d 9 -p cbr -e 512 -c 2 -a 0 -i 105 -k AGT
+ -t 17.235532245 -s 1 -d -1 -p cbr -e 512 -c 2 -a 0 -i 106 -k AGT 
- -t 17.235532245 -s 1 -d -1 -p cbr -e 512 -c 2 -a 0 -i 106 -k AGT
h -t 17.235532245 -s 1 -d -1 -p cbr -e 512 -c 2 -a 0 -i 106 -k AGT
r -t 17.241380522 -s 2 -d 2 -p cbr -e 512 -c 2 -a 0 -i 106 -k AGT
+ -t 17.391241836 -s 1 -d -1 -p cbr -e 512 -c 2 -a 0 -i 107 -k AGT 
- -t 17.391241836 -s 1 -d -1 -p cbr -e 512 -c 2 -a 0 -i 107 -k AGT
h -t 17.391241836 -s 1 -d -1 -p cbr -e 512 -c 2 -a 0 -i 107 -k AGT
r -t 17.397270117 -s 2 -d 2 -p cbr -e 512 -c 2 -a 0 -i 107 -k AGT
+ -t 17.435341443 -s 7 -d -1 -p cbr -e 512 -c 2 -a 0 -i 108 -k AGT 
- -t 17.435341443 -s 7 -d -1 -p cbr -e 512 -c 2 -a 0 -i 108 -k AGT
h -t 17.435341443 -s 7 -d -1 -p cbr -e 512 -c 2 -a 0 -i 108 -k AGT
r -t 17.441371347 -s 9 -d 9 -p cbr -e 512 -c 2 -a 0 -i 108 -k AGT
+ -t 17.542658589 -s 1 -d -1 -p cbr -e 512 -c 2 -a 0 -i 109 -k AGT 
- -t 17.542658589 -s 1 -d -1 -p cbr -e 512 -c 2 -a 0 -i 109 -k AGT
h -t 17.542658589 -s 1 -d -1 -p cbr -e 512 -c 2 -a 0 -i 109 -k AGT
r -t 17.548646874 -s 2 -d 2 -p cbr -e 512 -c 2 -a 0 -i 109 -k AGT
+ -t 17.693459956 -s 7 -d -1 -p cbr -e 512 -c 2 -a 0 -i 110 -k AGT 
- -t 17.693459956 -s 7 -d -1 -p cbr -e 512 -c 2 -a 0 -i 110 -k AGT
h -t 17.693459956 -s 7 -d -1 -p cbr -e 512 -c 2 -a 0 -i 110 -k AGT
r -t 17.699049862 -s 9 -d 9 -p cbr -e 512 -c 2 -a 0 -i 110 -k AGT
+ -t 17.813517285 -s 1 -d -1 -p cbr -e 512 -c 2 -a 0 -i 111 -k AGT 
- -t 17.813517285 -s 1 -d -1 -p cbr -e 512 -c 2 -a 0 -i 111 -k AGT
h -t 17.813517285 -s 1 -d -1 -p cbr -e 512 -c 2 -a 0 -i 111 -k AGT
r -t 17.819405578 -s 2 -d 2 -p cbr -e 512 -c 2 -a 0 -i 111 -k AGT
+ -t 18.044656798 -s 1 -d -1 -p cbr -e 512 -c 2 -a 0 -i 112 -k AGT 
- -t 18.044656798 -s 1 -d -1 -p cbr -e 512 -c 2 -a 0 -i 112 -k AGT
h -t 18.044656798 -s 1 -d -1 -p cbr -e 512 -c 2 -a 0 -i 112 -k AGT