M 0.0 nn 10 x 300 y 300 rp dsr
M 0.0 sc ../mobility/scene/scen-10-test cp ../mobility/scene/cbr-10-test seed 0.0
M 0.0 prop Propagation/TwoRayGround ant Antenna/OmniAntenna
Sconfig 0.00000 tap: on snoop: rts? on errs? on
Sconfig 0.00000 salvage: on !bd replies? on
Sconfig 0.00000 grat error: on grat reply: on
Sconfig 0.00000 $reply for props: on ring 0 search: on
Sconfig 0.00000 using MOBICACHE
M 2.00000 0 (208.79, 93.09, 0.00), (164.55, 162.99), 0.28
M 2.00000 1 (196.26, 195.03, 0.00), (84.09, 212.95), 5.05
M 2.00000 2 (58.99, 127.10, 0.00), (144.24, 221.89), 9.91
M 2.00000 3 (60.50, 196.73, 0.00), (254.29, 219.67), 8.51
M 2.00000 4 (42.29, 46.82, 0.00), (217.01, 46.42), 5.04
M 2.00000 5 (207.91, 176.39, 0.00), (91.85, 48.35), 6.51
M 2.00000 6 (296.58, 11.45, 0.00), (227.22, 262.23), 0.46
M 2.00000 7 (72.14, 285.72, 0.00), (193.12, 184.55), 7.07
M 2.00000 8 (10.91, 10.09, 0.00), (160.07, 159.09), 5.75
M 2.00000 9 (113.01, 64.01, 0.00), (11.55, 18.68), 2.98
s 2.556838879 _1_ AGT  --- 0 cbr 512 [0 0 0 0] ------- [1:0 2:0 32 0] [0] 0 1
r 2.556838879 _1_ RTR  --- 0 cbr 512 [0 0 0 0] ------- [1:0 2:0 32 0] [0] 0 1
s 2.562325583 _1_ RTR  --- 1 DSR 32 [0 0 0 0] ------- [1:255 2:255 32 0] 1 [1 1] [0 1 0 0->0] [0 0 0 0->0]
r 2.563457666 _5_ RTR  --- 1 DSR 32 [0 ffffffff 1 800] ------- [1:255 2:255 32 0] 1 [1 1] [0 1 0 0->0] [0 0 0 0->0]
r 2.563457927 _0_ RTR  --- 1 DSR 32 [0 ffffffff 1 800] ------- [1:255 2:255 32 0] 1 [1 1] [0 1 0 0->0] [0 0 0 0->0]
r 2.563458010 _3_ RTR  --- 1 DSR 32 [0 ffffffff 1 800] ------- [1:255 2:255 32 0] 1 [1 1] [0 1 0 0->0] [0 0 0 0->0]
r 2.563458068 _2_ RTR  --- 1 DSR 32 [0 ffffffff 1 800] ------- [1:255 2:255 32 0] 1 [1 1] [0 1 0 0->0] [0 0 0 0->0]
r 2.563458073 _7_ RTR  --- 1 DSR 32 [0 ffffffff 1 800] ------- [1:255 2:255 32 0] 1 [1 1] [0 1 0 0->0] [0 0 0 0->0]
r 2.563458101 _9_ RTR  --- 1 DSR 32 [0 ffffffff 1 800] ------- [1:255 2:255 32 0] 1 [1 1] [0 1 0 0->0] [0 0 0 0->0]
r 2.563458283 _4_ RTR  --- 1 DSR 32 [0 ffffffff 1 800] ------- [1:255 2:255 32 0] 1 [1 1] [0 1 0 0->0] [0 0 0 0->0]
r 2.563458285 _6_ RTR  --- 1 DSR 32 [0 ffffffff 1 800] ------- [1:255 2:255 32 0] 1 [1 1] [0 1 0 0->0] [0 0 0 0->0]
s 2.564897024 _2_ RTR  --- 2 DSR 44 [0 0 0 0] ------- [2:255 1:255 254 1] 2 [0 1] [1 1 2 1->2] [0 0 0 0->0]
r 2.569719422 _1_ RTR  --- 2 DSR 44 [13a 1 2 800] ------- [2:255 1:255 254 1] 2 [0 1] [1 1 2 1->2] [0 0 0 0->0]
SFESTs 2.569719422 _1_ 0 [1 -> 2] 1(1) to 2 [1 |2 ]
s 2.569719422 _1_ RTR  --- 0 cbr 548 [0 0 0 0] ------- [1:0 2:0 32 2] [0] 0 1
r 2.575580877 _2_ RTR  --- 0 cbr 548 [13a 2 1 800] ------- [1:0 2:0 32 2] [0] 1 1
r 2.575580877 _2_ AGT  --- 0 cbr 512 [13a 2 1 800] ------- [1:0 2:0 32 2] [0] 1 1
s 2.777383288 _1_ AGT  --- 3 cbr 512 [0 0 0 0] ------- [1:0 2:0 32 0] [1] 0 1
r 2.777383288 _1_ RTR  --- 3 cbr 512 [0 0 0 0] ------- [1:0 2:0 32 0] [1] 0 1
SFESTs 2.777383288 _1_ 3 [1 -> 2] 1(1) to 2 [1 |2 ]
s 2.777383288 _1_ RTR  --- 3 cbr 548 [0 0 0 0] ------- [1:0 2:0 32 2] [1] 0 1
r 2.783540716 _2_ RTR  --- 3 cbr 548 [13a 2 1 800] ------- [1:0 2:0 32 2] [1] 1 1
r 2.783540716 _2_ AGT  --- 3 cbr 512 [13a 2 1 800] ------- [1:0 2:0 32 2] [1] 1 1
s 2.921986346 _1_ AGT  --- 4 cbr 512 [0 0 0 0] ------- [1:0 2:0 32 0] [2] 0 1
r 2.921986346 _1_ RTR  --- 4 cbr 512 [0 0 0 0] ------- [1:0 2:0 32 0] [2] 0 1
SFESTs 2.921986346 _1_ 4 [1 -> 2] 1(1) to 2 [1 |2 ]
s 2.921986346 _1_ RTR  --- 4 cbr 548 [0 0 0 0] ------- [1:0 2:0 32 2] [2] 0 1
r 2.927803755 _2_ RTR  --- 4 cbr 548 [13a 2 1 800] ------- [1:0 2:0 32 2] [2] 1 1
r 2.927803755 _2_ AGT  --- 4 cbr 512 [13a 2 1 800] ------- [1:0 2:0 32 2] [2] 1 1
s 3.084067740 _1_ AGT  --- 5 cbr 512 [0 0 0 0] ------- [1:0 2:0 32 0] [3] 0 1
r 3.084067740 _1_ RTR  --- 5 cbr 512 [0 0 0 0] ------- [1:0 2:0 32 0] [3] 0 1
SFs 3.084067740 _1_ 5 [1 -> 2] 1(0) to 2 
s 3.084067740 _1_ RTR  --- 5 cbr 532 [0 0 0 0] ------- [1:0 2:0 32 2] [3] 0 1
r 3.089817128 _2_ RTR  --- 5 cbr 532 [13a 2 1 800] ------- [1:0 2:0 32 2] [3] 1 1
r 3.089817128 _2_ AGT  --- 5 cbr 512 [13a 2 1 800] ------- [1:0 2:0 32 2] [3] 1 1
s 3.391205577 _1_ AGT  --- 6 cbr 512 [0 0 0 0] ------- [1:0 2:0 32 0] [4] 0 1
r 3.391205577 _1_ RTR  --- 6 cbr 512 [0 0 0 0] ------- [1:0 2:0 32 0] [4] 0 1
SFs 3.391205577 _1_ 6 [1 -> 2] 1(0) to 2 
s 3.391205577 _1_ RTR  --- 6 cbr 532 [0 0 0 0] ------- [1:0 2:0 32 2] [4] 0 1
r 3.396714923 _2_ RTR  --- 6 cbr 532 [13a 2 1 800] ------- [1:0 2:0 32 2] [4] 1 1
r 3.396714923 _2_ AGT  --- 6 cbr 512 [13a 2 1 800] ------- [1:0 2:0 32 2] [4] 1 1
s 3.556449110 _1_ AGT  --- 7 cbr 512 [0 0 0 0] ------- [1:0 2:0 32 0] [5] 0 1
r 3.556449110 _1_ RTR  --- 7 cbr 512 [0 0 0 0] ------- [1:0 2:0 32 0] [5] 0 1
SFs 3.556449110 _1_ 7 [1 -> 2] 1(0) to 2 
s 3.556449110 _1_ RTR  --- 7 cbr 532 [0 0 0 0] ------- [1:0 2:0 32 2] [5] 0 1
r 3.562338434 _2_ RTR  --- 7 cbr 532 [13a 2 1 800] ------- [1:0 2:0 32 2] [5] 1 1
r 3.562338434 _2_ AGT  --- 7 cbr 512 [13a 2 1 800] ------- [1:0 2:0 32 2] [5] 1 1
s 3.765001577 _1_ AGT  --- 8 cbr 512 [0 0 0 0] ------- [1:0 2:0 32 0] [6] 0 1
r 3.765001577 _1_ RTR  --- 8 cbr 512 [0 0 0 0] ------- [1:0 2:0 32 0] [6] 0 1
SFs 3.765001577 _1_ 8 [1 -> 2] 1(0) to 2 
s 3.765001577 _1_ RTR  --- 8 cbr 532 [0 0 0 0] ------- [1:0 2:0 32 2] [6] 0 1
r 3.770450873 _2_ RTR  --- 8 cbr 532 [13a 2 1 800] ------- [1:0 2:0 32 2] [6] 1 1
r 3.770450873 _2_ AGT  --- 8 cbr 512 [13a 2 1 800] ------- [1:0 2:0 32 2] [6] 1 1
s 4.047944118 _1_ AGT  --- 9 cbr 512 [0 0 0 0] ------- [1:0 2:0 32 0] [7] 0 1
r 4.047944118 _1_ RTR  --- 9 cbr 512 [0 0 0 0] ------- [1:0 2:0 32 0] [7] 0 1
SFs 4.047944118 _1_ 9 [1 -> 2] 1(0) to 2 
s 4.047944118 _1_ RTR  --- 9 cbr 532 [0 0 0 0] ------- [1:0 2:0 32 2] [7] 0 1
r 4.053913377 _2_ RTR  --- 9 cbr 532 [13a 2 1 800] ------- [1:0 2:0 32 2] [7] 1 1
r 4.053913377 _2_ AGT  --- 9 cbr 512 [13a 2 1 800] ------- [1:0 2:0 32 2] [7] 1 1
s 4.272888549 _1_ AGT  --- 10 cbr 512 [0 0 0 0] ------- [1:0 2:0 32 0] [8] 0 1
r 4.272888549 _1_ RTR  --- 10 cbr 512 [0 0 0 0] ------- [1:0 2:0 32 0] [8] 0 1
SFs 4.272888549 _1_ 10 [1 -> 2] 1(0) to 2 
s 4.272888549 _1_ RTR  --- 10 cbr 532 [0 0 0 0] ------- [1:0 2:0 32 2] [8] 0 1
r 4.278937778 _2_ RTR  --- 10 cbr 532 [13a 2 1 800] ------- [1:0 2:0 32 2] [8] 1 1
r 4.278937778 _2_ AGT  --- 10 cbr 512 [13a 2 1 800] ------- [1:0 2:0 32 2] [8] 1 1
s 4.473795172 _1_ AGT  --- 11 cbr 512 [0 0 0 0] ------- [1:0 2:0 32 0] [9] 0 1
r 4.473795172 _1_ RTR  --- 11 cbr 512 [0 0 0 0] ------- [1:0 2:0 32 0] [9] 0 1
SFs 4.473795172 _1_ 11 [1 -> 2] 1(0) to 2 
s 4.473795172 _1_ RTR  --- 11 cbr 532 [0 0 0 0] ------- [1:0 2:0 32 2] [9] 0 1
r 4.479824374 _2_ RTR  --- 11 cbr 532 [13a 2 1 800] ------- [1:0 2:0 32 2] [9] 1 1
r 4.479824374 _2_ AGT  --- 11 cbr 512 [13a 2 1 800] ------- [1:0 2:0 32 2] [9] 1 1
s 4.741105888 _1_ AGT  --- 12 cbr 512 [0 0 0 0] ------- [1:0 2:0 32 0] [10] 0 1
r 4.741105888 _1_ RTR  --- 12 cbr 512 [0 0 0 0] ------- [1:0 2:0 32 0] [10] 0 1
SFs 4.741105888 _1_ 12 [1 -> 2] 1(0) to 2 
s 4.741105888 _1_ RTR  --- 12 cbr 532 [0 0 0 0] ------- [1:0 2:0 32 2] [10] 0 1
r 4.746735055 _2_ RTR  --- 12 cbr 532 [13a 2 1 800] ------- [1:0 2:0 32 2] [10] 1 1
r 4.746735055 _2_ AGT  --- 12 cbr 512 [13a 2 1 800] ------- [1:0 2:0 32 2] [10] 1 1
s 5.045986233 _1_ AGT  --- 13 cbr 512 [0 0 0 0] ------- [1:0 2:0 32 0] [11] 0 1
r 5.045986233 _1_ RTR  --- 13 cbr 512 [0 0 0 0] ------- [1:0 2:0 32 0] [11] 0 1
SFs 5.045986233 _1_ 13 [1 -> 2] 1(0) to 2 
s 5.045986233 _1_ RTR  --- 13 cbr 532 [0 0 0 0] ------- [1:0 2:0 32 2] [11] 0 1
r 5.051695359 _2_ RTR  --- 13 cbr 532 [13a 2 1 800] ------- [1:0 2:0 32 2] [11] 1 1
r 5.051695359 _2_ AGT  --- 13 cbr 512 [13a 2 1 800] ------- [1:0 2:0 32 2] [11] 1 1
s 5.343788314 _1_ AGT  --- 14 cbr 512 [0 0 0 0] ------- [1:0 2:0 32 0] [12] 0 1
r 5.343788314 _1_ RTR  --- 14 cbr 512 [0 0 0 0] ------- [1:0 2:0 32 0] [12] 0 1
SFs 5.343788314 _1_ 14 [1 -> 2] 1(0) to 2 
s 5.343788314 _1_ RTR  --- 14 cbr 532 [0 0 0 0] ------- [1:0 2:0 32 2] [12] 0 1
r 5.349477400 _2_ RTR  --- 14 cbr 532 [13a 2 1 800] ------- [1:0 2:0 32 2] [12] 1 1
r 5.349477400 _2_ AGT  --- 14 cbr 512 [13a 2 1 800] ------- [1:0 2:0 32 2] [12] 1 1
s 5.655207439 _1_ AGT  --- 15 cbr 512 [0 0 0 0] ------- [1:0 2:0 32 0] [13] 0 1
r 5.655207439 _1_ RTR  --- 15 cbr 512 [0 0 0 0] ------- [1:0 2:0 32 0] [13] 0 1
SFs 5.655207439 _1_ 15 [1 -> 2] 1(0) to 2 
s 5.655207439 _1_ RTR  --- 15 cbr 532 [0 0 0 0] ------- [1:0 2:0 32 2] [13] 0 1
r 5.661036484 _2_ RTR  --- 15 cbr 532 [13a 2 1 800] ------- [1:0 2:0 32 2] [13] 1 1
r 5.661036484 _2_ AGT  --- 15 cbr 512 [13a 2 1 800] ------- [1:0 2:0 32 2] [13] 1 1
s 5.887208476 _1_ AGT  --- 16 cbr 512 [0 0 0 0] ------- [1:0 2:0 32 0] [14] 0 1
r 5.887208476 _1_ RTR  --- 16 cbr 512 [0 0 0 0] ------- [1:0 2:0 32 0] [14] 0 1
SFs 5.887208476 _1_ 16 [1 -> 2] 1(0) to 2 
s 5.887208476 _1_ RTR  --- 16 cbr 532 [0 0 0 0] ------- [1:0 2:0 32 2] [14] 0 1
r 5.893157490 _2_ RTR  --- 16 cbr 532 [13a 2 1 800] ------- [1:0 2:0 32 2] [14] 1 1
r 5.893157490 _2_ AGT  --- 16 cbr 512 [13a 2 1 800] ------- [1:0 2:0 32 2] [14] 1 1
s 6.076210616 _1_ AGT  --- 17 cbr 512 [0 0 0 0] ------- [1:0 2:0 32 0] [15] 0 1
r 6.076210616 _1_ RTR  --- 17 cbr 512 [0 0 0 0] ------- [1:0 2:0 32 0] [15] 0 1
SFs 6.076210616 _1_ 17 [1 -> 2] 1(0) to 2 
s 6.076210616 _1_ RTR  --- 17 cbr 532 [0 0 0 0] ------- [1:0 2:0 32 2] [15] 0 1
r 6.081819605 _2_ RTR  --- 17 cbr 532 [13a 2 1 800] ------- [1:0 2:0 32 2] [15] 1 1
r 6.081819605 _2_ AGT  --- 17 cbr 512 [13a 2 1 800] ------- [1:0 2:0 32 2] [15] 1 1
s 6.404309420 _1_ AGT  --- 18 cbr 512 [0 0 0 0] ------- [1:0 2:0 32 0] [16] 0 1
r 6.404309420 _1_ RTR  --- 18 cbr 512 [0 0 0 0] ------- [1:0 2:0 32 0] [16] 0 1
SFs 6.404309420 _1_ 18 [1 -> 2] 1(0) to 2 
s 6.404309420 _1_ RTR  --- 18 cbr 532 [0 0 0 0] ------- [1:0 2:0 32 2] [16] 0 1
r 6.410298366 _2_ RTR  --- 18 cbr 532 [13a 2 1 800] ------- [1:0 2:0 32 2] [16] 1 1
r 6.410298366 _2_ AGT  --- 18 cbr 512 [13a 2 1 800] ------- [1:0 2:0 32 2] [16] 1 1
s 6.775500125 _1_ AGT  --- 19 cbr 512 [0 0 0 0] ------- [1:0 2:0 32 0] [17] 0 1
r 6.775500125 _1_ RTR  --- 19 cbr 512 [0 0 0 0] ------- [1:0 2:0 32 0] [17] 0 1
SFs 6.775500125 _1_ 19 [1 -> 2] 1(0) to 2 
s 6.775500125 _1_ RTR  --- 19 cbr 532 [0 0 0 0] ------- [1:0 2:0 32 2] [17] 0 1
r 6.780969021 _2_ RTR  --- 19 cbr 532 [13a 2 1 800] ------- [1:0 2:0 32 2] [17] 1 1
r 6.780969021 _2_ AGT  --- 19 cbr 512 [13a 2 1 800] ------- [1:0 2:0 32 2] [17] 1 1
s 7.132807438 _1_ AGT  --- 20 cbr 512 [0 0 0 0] ------- [1:0 2:0 32 0] [18] 0 1
r 7.132807438 _1_ RTR  --- 20 cbr 512 [0 0 0 0] ------- [1:0 2:0 32 0] [18] 0 1
SFs 7.132807438 _1_ 20 [1 -> 2] 1(0) to 2 
s 7.132807438 _1_ RTR  --- 20 cbr 532 [0 0 0 0] ------- [1:0 2:0 32 2] [18] 0 1
r 7.138656287 _2_ RTR  --- 20 cbr 532 [13a 2 1 800] ------- [1:0 2:0 32 2] [18] 1 1
r 7.138656287 _2_ AGT  --- 20 cbr 512 [13a 2 1 800] ------- [1:0 2:0 32 2] [18] 1 1
s 7.319885520 _1_ AGT  --- 21 cbr 512 [0 0 0 0] ------- [1:0 2:0 32 0] [19] 0 1
r 7.319885520 _1_ RTR  --- 21 cbr 512 [0 0 0 0] ------- [1:0 2:0 32 0] [19] 0 1
SFs 7.319885520 _1_ 21 [1 -> 2] 1(0) to 2 
s 7.319885520 _1_ RTR  --- 21 cbr 532 [0 0 0 0] ------- [1:0 2:0 32 2] [19] 0 1
r 7.325914344 _2_ RTR  --- 21 cbr 532 [13a 2 1 800] ------- [1:0 2:0 32 2] [19] 1 1
r 7.325914344 _2_ AGT  --- 21 cbr 512 [13a 2 1 800] ------- [1:0 2:0 32 2] [19] 1 1
s 7.471135890 _1_ AGT  --- 22 cbr 512 [0 0 0 0] ------- [1:0 2:0 32 0] [20] 0 1
r 7.471135890 _1_ RTR  --- 22 cbr 512 [0 0 0 0] ------- [1:0 2:0 32 0] [20] 0 1
SFs 7.471135890 _1_ 22 [1 -> 2] 1(0) to 2 
s 7.471135890 _1_ RTR  --- 22 cbr 532 [0 0 0 0] ------- [1:0 2:0 32 2] [20] 0 1
r 7.476684694 _2_ RTR  --- 22 cbr 532 [13a 2 1 800] ------- [1:0 2:0 32 2] [20] 1 1
r 7.476684694 _2_ AGT  --- 22 cbr 512 [13a 2 1 800] ------- [1:0 2:0 32 2] [20] 1 1
s 7.639496532 _1_ AGT  --- 23 cbr 512 [0 0 0 0] ------- [1:0 2:0 32 0] [21] 0 1
r 7.639496532 _1_ RTR  --- 23 cbr 512 [0 0 0 0] ------- [1:0 2:0 32 0] [21] 0 1
SFs 7.639496532 _1_ 23 [1 -> 2] 1(0) to 2 
s 7.639496532 _1_ RTR  --- 23 cbr 532 [0 0 0 0] ------- [1:0 2:0 32 2] [21] 0 1
r 7.645065314 _2_ RTR  --- 23 cbr 532 [13a 2 1 800] ------- [1:0 2:0 32 2] [21] 1 1
r 7.645065314 _2_ AGT  --- 23 cbr 512 [13a 2 1 800] ------- [1:0 2:0 32 2] [21] 1 1
s 7.703020315 _7_ AGT  --- 24 cbr 512 [0 0 0 0] ------- [7:2 9:0 32 0] [0] 0 1
r 7.703020315 _7_ RTR  --- 24 cbr 512 [0 0 0 0] ------- [7:2 9:0 32 0] [0] 0 1
s 7.708355102 _7_ RTR  --- 25 DSR 32 [0 0 0 0] ------- [7:255 9:255 32 0] 1 [1 1] [0 1 0 0->0] [0 0 0 0->0]
r 7.709667294 _3_ RTR  --- 25 DSR 32 [0 ffffffff 7 800] ------- [7:255 9:255 32 0] 1 [1 1] [0 1 0 0->0] [0 0 0 0->0]
r 7.709667397 _1_ RTR  --- 25 DSR 32 [0 ffffffff 7 800] ------- [7:255 9:255 32 0] 1 [1 1] [0 1 0 0->0] [0 0 0 0->0]
r 7.709667405 _2_ RTR  --- 25 DSR 32 [0 ffffffff 7 800] ------- [7:255 9:255 32 0] 1 [1 1] [0 1 0 0->0] [0 0 0 0->0]
r 7.709667558 _5_ RTR  --- 25 DSR 32 [0 ffffffff 7 800] ------- [7:255 9:255 32 0] 1 [1 1] [0 1 0 0->0] [0 0 0 0->0]
r 7.709667755 _0_ RTR  --- 25 DSR 32 [0 ffffffff 7 800] ------- [7:255 9:255 32 0] 1 [1 1] [0 1 0 0->0] [0 0 0 0->0]
r 7.709667778 _9_ RTR  --- 25 DSR 32 [0 ffffffff 7 800] ------- [7:255 9:255 32 0] 1 [1 1] [0 1 0 0->0] [0 0 0 0->0]
r 7.709667820 _4_ RTR  --- 25 DSR 32 [0 ffffffff 7 800] ------- [7:255 9:255 32 0] 1 [1 1] [0 1 0 0->0] [0 0 0 0->0]
r 7.709667891 _8_ RTR  --- 25 DSR 32 [0 ffffffff 7 800] ------- [7:255 9:255 32 0] 1 [1 1] [0 1 0 0->0] [0 0 0 0->0]
s 7.714801222 _9_ RTR  --- 26 DSR 44 [0 0 0 0] ------- [9:255 7:255 254 7] 2 [0 1] [1 1 2 7->9] [0 0 0 0->0]
r 7.719344955 _7_ RTR  --- 26 DSR 44 [13a 7 9 800] ------- [9:255 7:255 254 7] 2 [0 1] [1 1 2 7->9] [0 0 0 0->0]
SFESTs 7.719344955 _7_ 24 [7 -> 9] 1(1) to 9 [7 |9 ]
s 7.719344955 _7_ RTR  --- 24 cbr 548 [0 0 0 0] ------- [7:2 9:0 32 9] [0] 0 1
r 7.725526983 _9_ RTR  --- 24 cbr 548 [13a 9 7 800] ------- [7:2 9:0 32 9] [0] 1 1
r 7.725526983 _9_ AGT  --- 24 cbr 512 [13a 9 7 800] ------- [7:2 9:0 32 9] [0] 1 1
s 7.873317638 _1_ AGT  --- 28 cbr 512 [0 0 0 0] ------- [1:0 2:0 32 0] [22] 0 1
r 7.873317638 _1_ RTR  --- 28 cbr 512 [0 0 0 0] ------- [1:0 2:0 32 0] [22] 0 1
SFs 7.873317638 _1_ 28 [1 -> 2] 1(0) to 2 
s 7.873317638 _1_ RTR  --- 28 cbr 532 [0 0 0 0] ------- [1:0 2:0 32 2] [22] 0 1
r 7.879166389 _2_ RTR  --- 28 cbr 532 [13a 2 1 800] ------- [1:0 2:0 32 2] [22] 1 1
r 7.879166389 _2_ AGT  --- 28 cbr 512 [13a 2 1 800] ------- [1:0 2:0 32 2] [22] 1 1
s 7.893576398 _7_ AGT  --- 29 cbr 512 [0 0 0 0] ------- [7:2 9:0 32 0] [1] 0 1
r 7.893576398 _7_ RTR  --- 29 cbr 512 [0 0 0 0] ------- [7:2 9:0 32 0] [1] 0 1
SFESTs 7.893576398 _7_ 29 [7 -> 9] 1(1) to 9 [7 |9 ]
s 7.893576398 _7_ RTR  --- 29 cbr 548 [0 0 0 0] ------- [7:2 9:0 32 9] [1] 0 1
r 7.899454421 _9_ RTR  --- 29 cbr 548 [13a 9 7 800] ------- [7:2 9:0 32 9] [1] 1 1
r 7.899454421 _9_ AGT  --- 29 cbr 512 [13a 9 7 800] ------- [7:2 9:0 32 9] [1] 1 1
s 8.097083235 _1_ AGT  --- 30 cbr 512 [0 0 0 0] ------- [1:0 2:0 32 0] [23] 0 1
r 8.097083235 _1_ RTR  --- 30 cbr 512 [0 0 0 0] ------- [1:0 2:0 32 0] [23] 0 1
SFESTs 8.097083235 _1_ 30 [1 -> 2] 1(1) to 2 [1 |2 ]
s 8.097083235 _1_ RTR  --- 30 cbr 548 [0 0 0 0] ------- [1:0 2:0 32 2] [23] 0 1
r 8.103079955 _2_ RTR  --- 30 cbr 548 [13a 2 1 800] ------- [1:0 2:0 32 2] [23] 1 1
r 8.103079955 _2_ AGT  --- 30 cbr 512 [13a 2 1 800] ------- [1:0 2:0 32 2] [23] 1 1
s 8.219655619 _7_ AGT  --- 31 cbr 512 [0 0 0 0] ------- [7:2 9:0 32 0] [2] 0 1
r 8.219655619 _7_ RTR  --- 31 cbr 512 [0 0 0 0] ------- [7:2 9:0 32 0] [2] 0 1
SFESTs 8.219655619 _7_ 31 [7 -> 9] 1(1) to 9 [7 |9 ]
s 8.219655619 _7_ RTR  --- 31 cbr 548 [0 0 0 0] ------- [7:2 9:0 32 9] [2] 0 1
r 8.225393632 _9_ RTR  --- 31 cbr 548 [13a 9 7 800] ------- [7:2 9:0 32 9] [2] 1 1
r 8.225393632 _9_ AGT  --- 31 cbr 512 [13a 9 7 800] ------- [7:2 9:0 32 9] [2] 1 1
s 8.355604576 _7_ AGT  --- 32 cbr 512 [0 0 0 0] ------- [7:2 9:0 32 0] [3] 0 1
r 8.355604576 _7_ RTR  --- 32 cbr 512 [0 0 0 0] ------- [7:2 9:0 32 0] [3] 0 1
SFs 8.355604576 _7_ 32 [7 -> 9] 1(0) to 9 
s 8.355604576 _7_ RTR  --- 32 cbr 532 [0 0 0 0] ------- [7:2 9:0 32 9] [3] 0 1
r 8.361614585 _9_ RTR  --- 32 cbr 532 [13a 9 7 800] ------- [7:2 9:0 32 9] [3] 1 1
r 8.361614585 _9_ AGT  --- 32 cbr 512 [13a 9 7 800] ------- [7:2 9:0 32 9] [3] 1 1
s 8.391376273 _1_ AGT  --- 33 cbr 512 [0 0 0 0] ------- [1:0 2:0 32 0] [24] 0 1
r 8.391376273 _1_ RTR  --- 33 cbr 512 [0 0 0 0] ------- [1:0 2:0 32 0] [24] 0 1
SFs 8.391376273 _1_ 33 [1 -> 2] 1(0) to 2 
s 8.391376273 _1_ RTR  --- 33 cbr 532 [0 0 0 0] ------- [1:0 2:0 32 2] [24] 0 1
r 8.397044955 _2_ RTR  --- 33 cbr 532 [13a 2 1 800] ------- [1:0 2:0 32 2] [24] 1 1
r 8.397044955 _2_ AGT  --- 33 cbr 512 [13a 2 1 800] ------- [1:0 2:0 32 2] [24] 1 1
s 8.519167326 _1_ AGT  --- 34 cbr 512 [0 0 0 0] ------- [1:0 2:0 32 0] [25] 0 1
r 8.519167326 _1_ RTR  --- 34 cbr 512 [0 0 0 0] ------- [1:0 2:0 32 0] [25] 0 1
SFs 8.519167326 _1_ 34 [1 -> 2] 1(0) to 2 
s 8.519167326 _1_ RTR  --- 34 cbr 532 [0 0 0 0] ------- [1:0 2:0 32 2] [25] 0 1
r 8.525155991 _2_ RTR  --- 34 cbr 532 [13a 2 1 800] ------- [1:0 2:0 32 2] [25] 1 1
r 8.525155991 _2_ AGT  --- 34 cbr 512 [13a 2 1 800] ------- [1:0 2:0 32 2] [25] 1 1
s 8.562412611 _7_ AGT  --- 35 cbr 512 [0 0 0 0] ------- [7:2 9:0 32 0] [4] 0 1
r 8.562412611 _7_ RTR  --- 35 cbr 512 [0 0 0 0] ------- [7:2 9:0 32 0] [4] 0 1
SFs 8.562412611 _7_ 35 [7 -> 9] 1(0) to 9 
s 8.562412611 _7_ RTR  --- 35 cbr 532 [0 0 0 0] ------- [7:2 9:0 32 9] [4] 0 1
r 8.568422614 _9_ RTR  --- 35 cbr 532 [13a 9 7 800] ------- [7:2 9:0 32 9] [4] 1 1
r 8.568422614 _9_ AGT  --- 35 cbr 512 [13a 9 7 800] ------- [7:2 9:0 32 9] [4] 1 1
s 8.668756792 _1_ AGT  --- 36 cbr 512 [0 0 0 0] ------- [1:0 2:0 32 0] [26] 0 1
r 8.668756792 _1_ RTR  --- 36 cbr 512 [0 0 0 0] ------- [1:0 2:0 32 0] [26] 0 1
SFs 8.668756792 _1_ 36 [1 -> 2] 1(0) to 2 
s 8.668756792 _1_ RTR  --- 36 cbr 532 [0 0 0 0] ------- [1:0 2:0 32 2] [26] 0 1
r 8.674205437 _2_ RTR  --- 36 cbr 532 [13a 2 1 800] ------- [1:0 2:0 32 2] [26] 1 1
r 8.674205437 _2_ AGT  --- 36 cbr 512 [13a 2 1 800] ------- [1:0 2:0 32 2] [26] 1 1
s 8.790550777 _7_ AGT  --- 37 cbr 512 [0 0 0 0] ------- [7:2 9:0 32 0] [5] 0 1
r 8.790550777 _7_ RTR  --- 37 cbr 512 [0 0 0 0] ------- [7:2 9:0 32 0] [5] 0 1
SFs 8.790550777 _7_ 37 [7 -> 9] 1(0) to 9 
s 8.790550777 _7_ RTR  --- 37 cbr 532 [0 0 0 0] ------- [7:2 9:0 32 9] [5] 0 1
r 8.796120774 _9_ RTR  --- 37 cbr 532 [13a 9 7 800] ------- [7:2 9:0 32 9] [5] 1 1
r 8.796120774 _9_ AGT  --- 37 cbr 512 [13a 9 7 800] ------- [7:2 9:0 32 9] [5] 1 1
s 8.973687054 _7_ AGT  --- 38 cbr 512 [0 0 0 0] ------- [7:2 9:0 32 0] [6] 0 1
r 8.973687054 _7_ RTR  --- 38 cbr 512 [0 0 0 0] ------- [7:2 9:0 32 0] [6] 0 1
SFs 8.973687054 _7_ 38 [7 -> 9] 1(0) to 9 
s 8.973687054 _7_ RTR  --- 38 cbr 532 [0 0 0 0] ------- [7:2 9:0 32 9] [6] 0 1
r 8.979637046 _9_ RTR  --- 38 cbr 532 [13a 9 7 800] ------- [7:2 9:0 32 9] [6] 1 1
r 8.979637046 _9_ AGT  --- 38 cbr 512 [13a 9 7 800] ------- [7:2 9:0 32 9] [6] 1 1
s 8.990744628 _1_ AGT  --- 39 cbr 512 [0 0 0 0] ------- [1:0 2:0 32 0] [27] 0 1
r 8.990744628 _1_ RTR  --- 39 cbr 512 [0 0 0 0] ------- [1:0 2:0 32 0] [27] 0 1
SFs 8.990744628 _1_ 39 [1 -> 2] 1(0) to 2 
s 8.990744628 _1_ RTR  --- 39 cbr 532 [0 0 0 0] ------- [1:0 2:0 32 2] [27] 0 1
r 8.996233231 _2_ RTR  --- 39 cbr 532 [13a 2 1 800] ------- [1:0 2:0 32 2] [27] 1 1
r 8.996233231 _2_ AGT  --- 39 cbr 512 [13a 2 1 800] ------- [1:0 2:0 32 2] [27] 1 1
s 9.171846486 _1_ AGT  --- 40 cbr 512 [0 0 0 0] ------- [1:0 2:0 32 0] [28] 0 1
r 9.171846486 _1_ RTR  --- 40 cbr 512 [0 0 0 0] ------- [1:0 2:0 32 0] [28] 0 1
SFs 9.171846486 _1_ 40 [1 -> 2] 1(0) to 2 
s 9.171846486 _1_ RTR  --- 40 cbr 532 [0 0 0 0] ------- [1:0 2:0 32 2] [28] 0 1
r 9.177295065 _2_ RTR  --- 40 cbr 532 [13a 2 1 800] ------- [1:0 2:0 32 2] [28] 1 1
r 9.177295065 _2_ AGT  --- 40 cbr 512 [13a 2 1 800] ------- [1:0 2:0 32 2] [28] 1 1
s 9.342605871 _7_ AGT  --- 41 cbr 512 [0 0 0 0] ------- [7:2 9:0 32 0] [7] 0 1
r 9.342605871 _7_ RTR  --- 41 cbr 512 [0 0 0 0] ------- [7:2 9:0 32 0] [7] 0 1
SFs 9.342605871 _7_ 41 [7 -> 9] 1(0) to 9 
s 9.342605871 _7_ RTR  --- 41 cbr 532 [0 0 0 0] ------- [7:2 9:0 32 9] [7] 0 1
r 9.348255854 _9_ RTR  --- 41 cbr 532 [13a 9 7 800] ------- [7:2 9:0 32 9] [7] 1 1
r 9.348255854 _9_ AGT  --- 41 cbr 512 [13a 9 7 800] ------- [7:2 9:0 32 9] [7] 1 1
s 9.470696235 _1_ AGT  --- 42 cbr 512 [0 0 0 0] ------- [1:0 2:0 32 0] [29] 0 1
r 9.470696235 _1_ RTR  --- 42 cbr 512 [0 0 0 0] ------- [1:0 2:0 32 0] [29] 0 1
SFs 9.470696235 _1_ 42 [1 -> 2] 1(0) to 2 
s 9.470696235 _1_ RTR  --- 42 cbr 532 [0 0 0 0] ------- [1:0 2:0 32 2] [29] 0 1
r 9.476484775 _2_ RTR  --- 42 cbr 532 [13a 2 1 800] ------- [1:0 2:0 32 2] [29] 1 1
r 9.476484775 _2_ AGT  --- 42 cbr 512 [13a 2 1 800] ------- [1:0 2:0 32 2] [29] 1 1
s 9.658387690 _7_ AGT  --- 43 cbr 512 [0 0 0 0] ------- [7:2 9:0 32 0] [8] 0 1
r 9.658387690 _7_ RTR  --- 43 cbr 512 [0 0 0 0] ------- [7:2 9:0 32 0] [8] 0 1
SFs 9.658387690 _7_ 43 [7 -> 9] 1(0) to 9 
s 9.658387690 _7_ RTR  --- 43 cbr 532 [0 0 0 0] ------- [7:2 9:0 32 9] [8] 0 1
r 9.664297665 _9_ RTR  --- 43 cbr 532 [13a 9 7 800] ------- [7:2 9:0 32 9] [8] 1 1
r 9.664297665 _9_ AGT  --- 43 cbr 512 [13a 9 7 800] ------- [7:2 9:0 32 9] [8] 1 1
s 9.708800829 _1_ AGT  --- 44 cbr 512 [0 0 0 0] ------- [1:0 2:0 32 0] [30] 0 1
r 9.708800829 _1_ RTR  --- 44 cbr 512 [0 0 0 0] ------- [1:0 2:0 32 0] [30] 0 1
SFs 9.708800829 _1_ 44 [1 -> 2] 1(0) to 2 
s 9.708800829 _1_ RTR  --- 44 cbr 532 [0 0 0 0] ------- [1:0 2:0 32 2] [30] 0 1
r 9.714449337 _2_ RTR  --- 44 cbr 532 [13a 2 1 800] ------- [1:0 2:0 32 2] [30] 1 1
r 9.714449337 _2_ AGT  --- 44 cbr 512 [13a 2 1 800] ------- [1:0 2:0 32 2] [30] 1 1
s 9.820454614 _7_ AGT  --- 45 cbr 512 [0 0 0 0] ------- [7:2 9:0 32 0] [9] 0 1
r 9.820454614 _7_ RTR  --- 45 cbr 512 [0 0 0 0] ------- [7:2 9:0 32 0] [9] 0 1
SFs 9.820454614 _7_ 45 [7 -> 9] 1(0) to 9 
s 9.820454614 _7_ RTR  --- 45 cbr 532 [0 0 0 0] ------- [7:2 9:0 32 9] [9] 0 1
r 9.826424585 _9_ RTR  --- 45 cbr 532 [13a 9 7 800] ------- [7:2 9:0 32 9] [9] 1 1
r 9.826424585 _9_ AGT  --- 45 cbr 512 [13a 9 7 800] ------- [7:2 9:0 32 9] [9] 1 1
s 9.855317472 _1_ AGT  --- 46 cbr 512 [0 0 0 0] ------- [1:0 2:0 32 0] [31] 0 1
r 9.855317472 _1_ RTR  --- 46 cbr 512 [0 0 0 0] ------- [1:0 2:0 32 0] [31] 0 1
SFs 9.855317472 _1_ 46 [1 -> 2] 1(0) to 2 
s 9.855317472 _1_ RTR  --- 46 cbr 532 [0 0 0 0] ------- [1:0 2:0 32 2] [31] 0 1
r 9.861185961 _2_ RTR  --- 46 cbr 532 [13a 2 1 800] ------- [1:0 2:0 32 2] [31] 1 1
r 9.861185961 _2_ AGT  --- 46 cbr 512 [13a 2 1 800] ------- [1:0 2:0 32 2] [31] 1 1
s 10.140626812 _1_ AGT  --- 47 cbr 512 [0 0 0 0] ------- [1:0 2:0 32 0] [32] 0 1
r 10.140626812 _1_ RTR  --- 47 cbr 512 [0 0 0 0] ------- [1:0 2:0 32 0] [32] 0 1
SFs 10.140626812 _1_ 47 [1 -> 2] 1(0) to 2 
s 10.140626812 _1_ RTR  --- 47 cbr 532 [0 0 0 0] ------- [1:0 2:0 32 2] [32] 0 1
r 10.146095263 _2_ RTR  --- 47 cbr 532 [13a 2 1 800] ------- [1:0 2:0 32 2] [32] 1 1
r 10.146095263 _2_ AGT  --- 47 cbr 512 [13a 2 1 800] ------- [1:0 2:0 32 2] [32] 1 1
s 10.184422752 _7_ AGT  --- 48 cbr 512 [0 0 0 0] ------- [7:2 9:0 32 0] [10] 0 1
r 10.184422752 _7_ RTR  --- 48 cbr 512 [0 0 0 0] ------- [7:2 9:0 32 0] [10] 0 1
SFs 10.184422752 _7_ 48 [7 -> 9] 1(0) to 9 
s 10.184422752 _7_ RTR  --- 48 cbr 532 [0 0 0 0] ------- [7:2 9:0 32 9] [10] 0 1
r 10.190352714 _9_ RTR  --- 48 cbr 532 [13a 9 7 800] ------- [7:2 9:0 32 9] [10] 1 1
r 10.190352714 _9_ AGT  --- 48 cbr 512 [13a 9 7 800] ------- [7:2 9:0 32 9] [10] 1 1
s 10.316366473 _1_ AGT  --- 49 cbr 512 [0 0 0 0] ------- [1:0 2:0 32 0] [33] 0 1
r 10.316366473 _1_ RTR  --- 49 cbr 512 [0 0 0 0] ------- [1:0 2:0 32 0] [33] 0 1
SFs 10.316366473 _1_ 49 [1 -> 2] 1(0) to 2 
s 10.316366473 _1_ RTR  --- 49 cbr 532 [0 0 0 0] ------- [1:0 2:0 32 2] [33] 0 1
r 10.321954902 _2_ RTR  --- 49 cbr 532 [13a 2 1 800] ------- [1:0 2:0 32 2] [33] 1 1
r 10.321954902 _2_ AGT  --- 49 cbr 512 [13a 2 1 800] ------- [1:0 2:0 32 2] [33] 1 1
s 10.545151651 _7_ AGT  --- 50 cbr 512 [0 0 0 0] ------- [7:2 9:0 32 0] [11] 0 1
r 10.545151651 _7_ RTR  --- 50 cbr 512 [0 0 0 0] ------- [7:2 9:0 32 0] [11] 0 1
SFs 10.545151651 _7_ 50 [7 -> 9] 1(0) to 9 
s 10.545151651 _7_ RTR  --- 50 cbr 532 [0 0 0 0] ------- [7:2 9:0 32 9] [11] 0 1
r 10.550781605 _9_ RTR  --- 50 cbr 532 [13a 9 7 800] ------- [7:2 9:0 32 9] [11] 1 1
r 10.550781605 _9_ AGT  --- 50 cbr 512 [13a 9 7 800] ------- [7:2 9:0 32 9] [11] 1 1
s 10.595570276 _1_ AGT  --- 51 cbr 512 [0 0 0 0] ------- [1:0 2:0 32 0] [34] 0 1
r 10.595570276 _1_ RTR  --- 51 cbr 512 [0 0 0 0] ------- [1:0 2:0 32 0] [34] 0 1
SFs 10.595570276 _1_ 51 [1 -> 2] 1(0) to 2 
s 10.595570276 _1_ RTR  --- 51 cbr 532 [0 0 0 0] ------- [1:0 2:0 32 2] [34] 0 1
r 10.601558668 _2_ RTR  --- 51 cbr 532 [13a 2 1 800] ------- [1:0 2:0 32 2] [34] 1 1
r 10.601558668 _2_ AGT  --- 51 cbr 512 [13a 2 1 800] ------- [1:0 2:0 32 2] [34] 1 1
s 10.787112493 _7_ AGT  --- 52 cbr 512 [0 0 0 0] ------- [7:2 9:0 32 0] [12] 0 1
r 10.787112493 _7_ RTR  --- 52 cbr 512 [0 0 0 0] ------- [7:2 9:0 32 0] [12] 0 1
SFs 10.787112493 _7_ 52 [7 -> 9] 1(0) to 9 
s 10.787112493 _7_ RTR  --- 52 cbr 532 [0 0 0 0] ------- [7:2 9:0 32 9] [12] 0 1
r 10.793102442 _9_ RTR  --- 52 cbr 532 [13a 9 7 800] ------- [7:2 9:0 32 9] [12] 1 1
r 10.793102442 _9_ AGT  --- 52 cbr 512 [13a 9 7 800] ------- [7:2 9:0 32 9] [12] 1 1
s 10.829672988 _1_ AGT  --- 53 cbr 512 [0 0 0 0] ------- [1:0 2:0 32 0] [35] 0 1
r 10.829672988 _1_ RTR  --- 53 cbr 512 [0 0 0 0] ------- [1:0 2:0 32 0] [35] 0 1
SFs 10.829672988 _1_ 53 [1 -> 2] 1(0) to 2 
s 10.829672988 _1_ RTR  --- 53 cbr 532 [0 0 0 0] ------- [1:0 2:0 32 2] [35] 0 1
r 10.835121350 _2_ RTR  --- 53 cbr 532 [13a 2 1 800] ------- [1:0 2:0 32 2] [35] 1 1
r 10.835121350 _2_ AGT  --- 53 cbr 512 [13a 2 1 800] ------- [1:0 2:0 32 2] [35] 1 1
s 11.093516139 _7_ AGT  --- 54 cbr 512 [0 0 0 0] ------- [7:2 9:0 32 0] [13] 0 1
r 11.093516139 _7_ RTR  --- 54 cbr 512 [0 0 0 0] ------- [7:2 9:0 32 0] [13] 0 1
SFs 11.093516139 _7_ 54 [7 -> 9] 1(0) to 9 
s 11.093516139 _7_ RTR  --- 54 cbr 532 [0 0 0 0] ------- [7:2 9:0 32 9] [13] 0 1
r 11.099406082 _9_ RTR  --- 54 cbr 532 [13a 9 7 800] ------- [7:2 9:0 32 9] [13] 1 1
r 11.099406082 _9_ AGT  --- 54 cbr 512 [13a 9 7 800] ------- [7:2 9:0 32 9] [13] 1 1
s 11.148317712 _1_ AGT  --- 55 cbr 512 [0 0 0 0] ------- [1:0 2:0 32 0] [36] 0 1
r 11.148317712 _1_ RTR  --- 55 cbr 512 [0 0 0 0] ------- [1:0 2:0 32 0] [36] 0 1
SFs 11.148317712 _1_ 55 [1 -> 2] 1(0) to 2 
s 11.148317712 _1_ RTR  --- 55 cbr 532 [0 0 0 0] ------- [1:0 2:0 32 2] [36] 0 1
r 11.154206033 _2_ RTR  --- 55 cbr 532 [13a 2 1 800] ------- [1:0 2:0 32 2] [36] 1 1
r 11.154206033 _2_ AGT  --- 55 cbr 512 [13a 2 1 800] ------- [1:0 2:0 32 2] [36] 1 1
s 11.283191489 _1_ AGT  --- 56 cbr 512 [0 0 0 0] ------- [1:0 2:0 32 0] [37] 0 1
r 11.283191489 _1_ RTR  --- 56 cbr 512 [0 0 0 0] ------- [1:0 2:0 32 0] [37] 0 1
SFs 11.283191489 _1_ 56 [1 -> 2] 1(0) to 2 
s 11.283191489 _1_ RTR  --- 56 cbr 532 [0 0 0 0] ------- [1:0 2:0 32 2] [37] 0 1
r 11.288939792 _2_ RTR  --- 56 cbr 532 [13a 2 1 800] ------- [1:0 2:0 32 2] [37] 1 1
r 11.288939792 _2_ AGT  --- 56 cbr 512 [13a 2 1 800] ------- [1:0 2:0 32 2] [37] 1 1
s 11.323182097 _7_ AGT  --- 57 cbr 512 [0 0 0 0] ------- [7:2 9:0 32 0] [14] 0 1
r 11.323182097 _7_ RTR  --- 57 cbr 512 [0 0 0 0] ------- [7:2 9:0 32 0] [14] 0 1
SFs 11.323182097 _7_ 57 [7 -> 9] 1(0) to 9 
s 11.323182097 _7_ RTR  --- 57 cbr 532 [0 0 0 0] ------- [7:2 9:0 32 9] [14] 0 1
r 11.329192037 _9_ RTR  --- 57 cbr 532 [13a 9 7 800] ------- [7:2 9:0 32 9] [14] 1 1
r 11.329192037 _9_ AGT  --- 57 cbr 512 [13a 9 7 800] ------- [7:2 9:0 32 9] [14] 1 1
s 11.468277719 _1_ AGT  --- 58 cbr 512 [0 0 0 0] ------- [1:0 2:0 32 0] [38] 0 1
r 11.468277719 _1_ RTR  --- 58 cbr 512 [0 0 0 0] ------- [1:0 2:0 32 0] [38] 0 1
SFs 11.468277719 _1_ 58 [1 -> 2] 1(0) to 2 
s 11.468277719 _1_ RTR  --- 58 cbr 532 [0 0 0 0] ------- [1:0 2:0 32 2] [38] 0 1
r 11.473985999 _2_ RTR  --- 58 cbr 532 [13a 2 1 800] ------- [1:0 2:0 32 2] [38] 1 1
r 11.473985999 _2_ AGT  --- 58 cbr 512 [13a 2 1 800] ------- [1:0 2:0 32 2] [38] 1 1
s 11.600831985 _7_ AGT  --- 59 cbr 512 [0 0 0 0] ------- [7:2 9:0 32 0] [15] 0 1
r 11.600831985 _7_ RTR  --- 59 cbr 512 [0 0 0 0] ------- [7:2 9:0 32 0] [15] 0 1
SFs 11.600831985 _7_ 59 [7 -> 9] 1(0) to 9 
s 11.600831985 _7_ RTR  --- 59 cbr 532 [0 0 0 0] ------- [7:2 9:0 32 9] [15] 0 1
r 11.606801920 _9_ RTR  --- 59 cbr 532 [13a 9 7 800] ------- [7:2 9:0 32 9] [15] 1 1
r 11.606801920 _9_ AGT  --- 59 cbr 512 [13a 9 7 800] ------- [7:2 9:0 32 9] [15] 1 1
s 11.732510939 _7_ AGT  --- 60 cbr 512 [0 0 0 0] ------- [7:2 9:0 32 0] [16] 0 1
r 11.732510939 _7_ RTR  --- 60 cbr 512 [0 0 0 0] ------- [7:2 9:0 32 0] [16] 0 1
SFs 11.732510939 _7_ 60 [7 -> 9] 1(0) to 9 
s 11.732510939 _7_ RTR  --- 60 cbr 532 [0 0 0 0] ------- [7:2 9:0 32 9] [16] 0 1
r 11.738260872 _9_ RTR  --- 60 cbr 532 [13a 9 7 800] ------- [7:2 9:0 32 9] [16] 1 1
r 11.738260872 _9_ AGT  --- 60 cbr 512 [13a 9 7 800] ------- [7:2 9:0 32 9] [16] 1 1
s 11.836181831 _1_ AGT  --- 61 cbr 512 [0 0 0 0] ------- [1:0 2:0 32 0] [39] 0 1
r 11.836181831 _1_ RTR  --- 61 cbr 512 [0 0 0 0] ------- [1:0 2:0 32 0] [39] 0 1
SFs 11.836181831 _1_ 61 [1 -> 2] 1(0) to 2 
s 11.836181831 _1_ RTR  --- 61 cbr 532 [0 0 0 0] ------- [1:0 2:0 32 2] [39] 0 1
r 11.842170065 _2_ RTR  --- 61 cbr 532 [13a 2 1 800] ------- [1:0 2:0 32 2] [39] 1 1
r 11.842170065 _2_ AGT  --- 61 cbr 512 [13a 2 1 800] ------- [1:0 2:0 32 2] [39] 1 1
s 11.907835823 _7_ AGT  --- 62 cbr 512 [0 0 0 0] ------- [7:2 9:0 32 0] [17] 0 1
r 11.907835823 _7_ RTR  --- 62 cbr 512 [0 0 0 0] ------- [7:2 9:0 32 0] [17] 0 1
SFs 11.907835823 _7_ 62 [7 -> 9] 1(0) to 9 
s 11.907835823 _7_ RTR  --- 62 cbr 532 [0 0 0 0] ------- [7:2 9:0 32 9] [17] 0 1
r 11.913425753 _9_ RTR  --- 62 cbr 532 [13a 9 7 800] ------- [7:2 9:0 32 9] [17] 1 1
r 11.913425753 _9_ AGT  --- 62 cbr 512 [13a 9 7 800] ------- [7:2 9:0 32 9] [17] 1 1
s 12.034345606 _1_ AGT  --- 63 cbr 512 [0 0 0 0] ------- [1:0 2:0 32 0] [40] 0 1
r 12.034345606 _1_ RTR  --- 63 cbr 512 [0 0 0 0] ------- [1:0 2:0 32 0] [40] 0 1
SFs 12.034345606 _1_ 63 [1 -> 2] 1(0) to 2 
s 12.034345606 _1_ RTR  --- 63 cbr 532 [0 0 0 0] ------- [1:0 2:0 32 2] [40] 0 1