s 0.029290548 _1_ RTR  --- 0 message 32 [0 0 0 0] ------- [1:255 -1:255 32 0] 
s 1.119926192 _0_ RTR  --- 1 message 32 [0 0 0 0] ------- [0:255 -1:255 32 0] 
M 10.00000 0 (5.00, 2.00, 0.00), (20.00, 18.00), 1.00
s 10.000000000 _0_ AGT  --- 2 tcp 40 [0 0 0 0] ------- [0:0 1:0 32 0] [0 0] 0 0
r 10.000000000 _0_ RTR  --- 2 tcp 40 [0 0 0 0] ------- [0:0 1:0 32 0] [0 0] 0 0
s 12.941172739 _1_ RTR  --- 3 message 32 [0 0 0 0] ------- [1:255 -1:255 32 0] 
s 13.000000000 _0_ AGT  --- 4 tcp 40 [0 0 0 0] ------- [0:0 1:0 32 0] [0 0] 0 0
r 13.000000000 _0_ RTR  --- 4 tcp 40 [0 0 0 0] ------- [0:0 1:0 32 0] [0 0] 0 0
s 13.242656084 _0_ RTR  --- 5 message 32 [0 0 0 0] ------- [0:255 -1:255 32 0] 
s 19.000000000 _0_ AGT  --- 6 tcp 40 [0 0 0 0] ------- [0:0 1:0 32 0] [0 0] 0 0
r 19.000000000 _0_ RTR  --- 6 tcp 40 [0 0 0 0] ------- [0:0 1:0 32 0] [0 0] 0 0
s 24.799296167 _1_ RTR  --- 7 message 32 [0 0 0 0] ------- [1:255 -1:255 32 0] 
s 27.719583723 _0_ RTR  --- 8 message 32 [0 0 0 0] ------- [0:255 -1:255 32 0] 
s 31.000000000 _0_ AGT  --- 9 tcp 40 [0 0 0 0] ------- [0:0 1:0 32 0] [0 0] 0 0
r 31.000000000 _0_ RTR  --- 9 tcp 40 [0 0 0 0] ------- [0:0 1:0 32 0] [0 0] 0 0
s 39.083332528 _1_ RTR  --- 10 message 32 [0 0 0 0] ------- [1:255 -1:255 32 0] 
s 40.918940913 _0_ RTR  --- 11 message 32 [0 0 0 0] ------- [0:255 -1:255 32 0] 
M 50.00000 1 (390.00, 385.00, 0.00), (25.00, 20.00), 15.00
s 53.478111556 _1_ RTR  --- 12 message 32 [0 0 0 0] ------- [1:255 -1:255 32 0] 
s 54.709362820 _0_ RTR  --- 13 message 32 [0 0 0 0] ------- [0:255 -1:255 32 0] 
s 55.000000000 _0_ AGT  --- 14 tcp 40 [0 0 0 0] ------- [0:0 1:0 32 0] [0 0] 0 0
r 55.000000000 _0_ RTR  --- 14 tcp 40 [0 0 0 0] ------- [0:0 1:0 32 0] [0 0] 0 0
s 65.134134662 _1_ RTR  --- 15 message 32 [0 0 0 0] ------- [1:255 -1:255 32 0] 
s 69.500212994 _0_ RTR  --- 16 message 32 [0 0 0 0] ------- [0:255 -1:255 32 0] 
r 69.501265756 _1_ RTR  --- 16 message 32 [0 ffffffff 0 800] ------- [0:255 -1:255 32 0] 
s 76.429530123 _1_ RTR  --- 17 message 32 [0 0 0 0] ------- [1:255 -1:255 32 0] 
r 76.430622539 _0_ RTR  --- 17 message 32 [0 ffffffff 1 800] ------- [1:255 -1:255 32 0] 
s 76.430622539 _0_ RTR  --- 2 tcp 80 [0 0 0 0] ------- [0:0 1:0 32 1] [0 0] 0 0
s 76.430622539 _0_ RTR  --- 4 tcp 80 [0 0 0 0] ------- [0:0 1:0 32 1] [0 0] 0 0
D 76.430622539 _0_ IFQ  ARP 2 tcp 80 [0 0 0 800] ------- [0:0 1:0 32 1] [0 0] 0 0
s 76.430622539 _0_ RTR  --- 6 tcp 80 [0 0 0 0] ------- [0:0 1:0 32 1] [0 0] 0 0
D 76.430622539 _0_ IFQ  ARP 4 tcp 80 [0 0 0 800] ------- [0:0 1:0 32 1] [0 0] 0 0
s 76.430622539 _0_ RTR  --- 9 tcp 80 [0 0 0 0] ------- [0:0 1:0 32 1] [0 0] 0 0
D 76.430622539 _0_ RTR  CBK 6 tcp 80 [0 0 0 800] ------- [0:0 1:0 32 1] [0 0] 0 0
D 76.430622539 _0_ RTR  CBK 9 tcp 80 [0 0 0 800] ------- [0:0 1:0 32 1] [0 0] 0 0
s 76.430622539 _0_ RTR  --- 14 tcp 80 [0 0 0 0] ------- [0:0 1:0 32 1] [0 0] 0 0
r 76.437717447 _1_ AGT  --- 14 tcp 80 [13a 1 0 800] ------- [0:0 1:0 32 1] [0 0] 1 0
s 76.437717447 _1_ AGT  --- 18 ack 40 [0 0 0 0] ------- [1:0 0:0 32 0] [0 0] 0 0
r 76.437717447 _1_ RTR  --- 18 ack 40 [0 0 0 0] ------- [1:0 0:0 32 0] [0 0] 0 0
s 76.437717447 _1_ RTR  --- 18 ack 60 [0 0 0 0] ------- [1:0 0:0 32 0] [0 0] 0 0
r 76.445559674 _0_ AGT  --- 18 ack 60 [13a 0 1 800] ------- [1:0 0:0 32 0] [0 0] 1 0
s 76.445559674 _0_ AGT  --- 19 tcp 1040 [0 0 0 0] ------- [0:0 1:0 32 0] [1 0] 0 0
r 76.445559674 _0_ RTR  --- 19 tcp 1040 [0 0 0 0] ------- [0:0 1:0 32 0] [1 0] 0 0
s 76.445559674 _0_ RTR  --- 19 tcp 1060 [0 0 0 0] ------- [0:0 1:0 32 1] [1 0] 0 0
r 76.455796918 _1_ AGT  --- 19 tcp 1060 [13a 1 0 800] ------- [0:0 1:0 32 1] [1 0] 1 0
s 76.455796918 _1_ AGT  --- 20 ack 40 [0 0 0 0] ------- [1:0 0:0 32 0] [1 0] 0 0
r 76.455796918 _1_ RTR  --- 20 ack 40 [0 0 0 0] ------- [1:0 0:0 32 0] [1 0] 0 0
s 76.455796918 _1_ RTR  --- 20 ack 60 [0 0 0 0] ------- [1:0 0:0 32 0] [1 0] 0 0
r 76.458194161 _0_ AGT  --- 20 ack 60 [13a 0 1 800] ------- [1:0 0:0 32 0] [1 0] 1 0
s 76.458194161 _0_ AGT  --- 21 tcp 1040 [0 0 0 0] ------- [0:0 1:0 32 0] [2 0] 0 0
r 76.458194161 _0_ RTR  --- 21 tcp 1040 [0 0 0 0] ------- [0:0 1:0 32 0] [2 0] 0 0
s 76.458194161 _0_ RTR  --- 21 tcp 1060 [0 0 0 0] ------- [0:0 1:0 32 1] [2 0] 0 0
s 76.458194161 _0_ AGT  --- 22 tcp 1040 [0 0 0 0] ------- [0:0 1:0 32 0] [3 0] 0 0
r 76.458194161 _0_ RTR  --- 22 tcp 1040 [0 0 0 0] ------- [0:0 1:0 32 0] [3 0] 0 0
s 76.458194161 _0_ RTR  --- 22 tcp 1060 [0 0 0 0] ------- [0:0 1:0 32 1] [3 0] 0 0
r 76.468331404 _1_ AGT  --- 21 tcp 1060 [13a 1 0 800] ------- [0:0 1:0 32 1] [2 0] 1 0
s 76.468331404 _1_ AGT  --- 23 ack 40 [0 0 0 0] ------- [1:0 0:0 32 0] [2 0] 0 0
r 76.468331404 _1_ RTR  --- 23 ack 40 [0 0 0 0] ------- [1:0 0:0 32 0] [2 0] 0 0
s 76.468331404 _1_ RTR  --- 23 ack 60 [0 0 0 0] ------- [1:0 0:0 32 0] [2 0] 0 0
r 76.470348645 _0_ AGT  --- 23 ack 60 [13a 0 1 800] ------- [1:0 0:0 32 0] [2 0] 1 0
s 76.470348645 _0_ AGT  --- 24 tcp 1040 [0 0 0 0] ------- [0:0 1:0 32 0] [4 0] 0 0
r 76.470348645 _0_ RTR  --- 24 tcp 1040 [0 0 0 0] ------- [0:0 1:0 32 0] [4 0] 0 0
s 76.470348645 _0_ RTR  --- 24 tcp 1060 [0 0 0 0] ------- [0:0 1:0 32 1] [4 0] 0 0
r 76.480485886 _1_ AGT  --- 22 tcp 1060 [13a 1 0 800] ------- [0:0 1:0 32 1] [3 0] 1 0
s 76.480485886 _1_ AGT  --- 25 ack 40 [0 0 0 0] ------- [1:0 0:0 32 0] [3 0] 0 0
r 76.480485886 _1_ RTR  --- 25 ack 40 [0 0 0 0] ------- [1:0 0:0 32 0] [3 0] 0 0
s 76.480485886 _1_ RTR  --- 25 ack 60 [0 0 0 0] ------- [1:0 0:0 32 0] [3 0] 0 0
r 76.482443126 _0_ AGT  --- 25 ack 60 [13a 0 1 800] ------- [1:0 0:0 32 0] [3 0] 1 0
s 76.482443126 _0_ AGT  --- 26 tcp 1040 [0 0 0 0] ------- [0:0 1:0 32 0] [5 0] 0 0
r 76.482443126 _0_ RTR  --- 26 tcp 1040 [0 0 0 0] ------- [0:0 1:0 32 0] [5 0] 0 0
s 76.482443126 _0_ RTR  --- 26 tcp 1060 [0 0 0 0] ------- [0:0 1:0 32 1] [5 0] 0 0
r 76.492440365 _1_ AGT  --- 24 tcp 1060 [13a 1 0 800] ------- [0:0 1:0 32 1] [4 0] 1 0
s 76.492440365 _1_ AGT  --- 27 ack 40 [0 0 0 0] ------- [1:0 0:0 32 0] [4 0] 0 0
r 76.492440365 _1_ RTR  --- 27 ack 40 [0 0 0 0] ------- [1:0 0:0 32 0] [4 0] 0 0
s 76.492440365 _1_ RTR  --- 27 ack 60 [0 0 0 0] ------- [1:0 0:0 32 0] [4 0] 0 0
r 76.494677602 _0_ AGT  --- 27 ack 60 [13a 0 1 800] ------- [1:0 0:0 32 0] [4 0] 1 0
s 76.494677602 _0_ AGT  --- 28 tcp 1040 [0 0 0 0] ------- [0:0 1:0 32 0] [6 0] 0 0
r 76.494677602 _0_ RTR  --- 28 tcp 1040 [0 0 0 0] ------- [0:0 1:0 32 0] [6 0] 0 0
s 76.494677602 _0_ RTR  --- 28 tcp 1060 [0 0 0 0] ------- [0:0 1:0 32 1] [6 0] 0 0
s 76.494677602 _0_ AGT  --- 29 tcp 1040 [0 0 0 0] ------- [0:0 1:0 32 0] [7 0] 0 0
r 76.494677602 _0_ RTR  --- 29 tcp 1040 [0 0 0 0] ------- [0:0 1:0 32 0] [7 0] 0 0
s 76.494677602 _0_ RTR  --- 29 tcp 1060 [0 0 0 0] ------- [0:0 1:0 32 1] [7 0] 0 0
r 76.504934839 _1_ AGT  --- 26 tcp 1060 [13a 1 0 800] ------- [0:0 1:0 32 1] [5 0] 1 0
s 76.504934839 _1_ AGT  --- 30 ack 40 [0 0 0 0] ------- [1:0 0:0 32 0] [5 0] 0 0
r 76.504934839 _1_ RTR  --- 30 ack 40 [0 0 0 0] ------- [1:0 0:0 32 0] [5 0] 0 0
s 76.504934839 _1_ RTR  --- 30 ack 60 [0 0 0 0] ------- [1:0 0:0 32 0] [5 0] 0 0
r 76.506932075 _0_ AGT  --- 30 ack 60 [13a 0 1 800] ------- [1:0 0:0 32 0] [5 0] 1 0
s 76.506932075 _0_ AGT  --- 31 tcp 1040 [0 0 0 0] ------- [0:0 1:0 32 0] [8 0] 0 0
r 76.506932075 _0_ RTR  --- 31 tcp 1040 [0 0 0 0] ------- [0:0 1:0 32 0] [8 0] 0 0
s 76.506932075 _0_ RTR  --- 31 tcp 1060 [0 0 0 0] ------- [0:0 1:0 32 1] [8 0] 0 0
r 76.517409311 _1_ AGT  --- 28 tcp 1060 [13a 1 0 800] ------- [0:0 1:0 32 1] [6 0] 1 0
s 76.517409311 _1_ AGT  --- 32 ack 40 [0 0 0 0] ------- [1:0 0:0 32 0] [6 0] 0 0
r 76.517409311 _1_ RTR  --- 32 ack 40 [0 0 0 0] ------- [1:0 0:0 32 0] [6 0] 0 0
s 76.517409311 _1_ RTR  --- 32 ack 60 [0 0 0 0] ------- [1:0 0:0 32 0] [6 0] 0 0
r 76.527786956 _1_ AGT  --- 29 tcp 1060 [13a 1 0 800] ------- [0:0 1:0 32 1] [7 0] 1 0
s 76.527786956 _1_ AGT  --- 33 ack 40 [0 0 0 0] ------- [1:0 0:0 32 0] [7 0] 0 0
r 76.527786956 _1_ RTR  --- 33 ack 40 [0 0 0 0] ------- [1:0 0:0 32 0] [7 0] 0 0
s 76.527786956 _1_ RTR  --- 33 ack 60 [0 0 0 0] ------- [1:0 0:0 32 0] [7 0] 0 0
r 76.529884188 _0_ AGT  --- 32 ack 60 [13a 0 1 800] ------- [1:0 0:0 32 0] [6 0] 1 0
s 76.529884188 _0_ AGT  --- 34 tcp 1040 [0 0 0 0] ------- [0:0 1:0 32 0] [9 0] 0 0
r 76.529884188 _0_ RTR  --- 34 tcp 1040 [0 0 0 0] ------- [0:0 1:0 32 0] [9 0] 0 0
s 76.529884188 _0_ RTR  --- 34 tcp 1060 [0 0 0 0] ------- [0:0 1:0 32 1] [9 0] 0 0
r 76.532121830 _0_ AGT  --- 33 ack 60 [13a 0 1 800] ------- [1:0 0:0 32 0] [7 0] 1 0
s 76.532121830 _0_ AGT  --- 35 tcp 1040 [0 0 0 0] ------- [0:0 1:0 32 0] [10 0] 0 0
r 76.532121830 _0_ RTR  --- 35 tcp 1040 [0 0 0 0] ------- [0:0 1:0 32 0] [10 0] 0 0
s 76.532121830 _0_ RTR  --- 35 tcp 1060 [0 0 0 0] ------- [0:0 1:0 32 1] [10 0] 0 0
s 76.532121830 _0_ AGT  --- 36 tcp 1040 [0 0 0 0] ------- [0:0 1:0 32 0] [11 0] 0 0
r 76.532121830 _0_ RTR  --- 36 tcp 1040 [0 0 0 0] ------- [0:0 1:0 32 0] [11 0] 0 0
s 76.532121830 _0_ RTR  --- 36 tcp 1060 [0 0 0 0] ------- [0:0 1:0 32 1] [11 0] 0 0
r 76.542159062 _1_ AGT  --- 31 tcp 1060 [13a 1 0 800] ------- [0:0 1:0 32 1] [8 0] 1 0
s 76.542159062 _1_ AGT  --- 37 ack 40 [0 0 0 0] ------- [1:0 0:0 32 0] [8 0] 0 0
r 76.542159062 _1_ RTR  --- 37 ack 40 [0 0 0 0] ------- [1:0 0:0 32 0] [8 0] 0 0
s 76.542159062 _1_ RTR  --- 37 ack 60 [0 0 0 0] ------- [1:0 0:0 32 0] [8 0] 0 0
r 76.544316292 _0_ AGT  --- 37 ack 60 [13a 0 1 800] ------- [1:0 0:0 32 0] [8 0] 1 0
s 76.544316292 _0_ AGT  --- 38 tcp 1040 [0 0 0 0] ------- [0:0 1:0 32 0] [12 0] 0 0
r 76.544316292 _0_ RTR  --- 38 tcp 1040 [0 0 0 0] ------- [0:0 1:0 32 0] [12 0] 0 0
s 76.544316292 _0_ RTR  --- 38 tcp 1060 [0 0 0 0] ------- [0:0 1:0 32 1] [12 0] 0 0
r 76.554353522 _1_ AGT  --- 34 tcp 1060 [13a 1 0 800] ------- [0:0 1:0 32 1] [9 0] 1 0
s 76.554353522 _1_ AGT  --- 39 ack 40 [0 0 0 0] ------- [1:0 0:0 32 0] [9 0] 0 0
r 76.554353522 _1_ RTR  --- 39 ack 40 [0 0 0 0] ------- [1:0 0:0 32 0] [9 0] 0 0
s 76.554353522 _1_ RTR  --- 39 ack 60 [0 0 0 0] ------- [1:0 0:0 32 0] [9 0] 0 0
r 76.564331160 _1_ AGT  --- 35 tcp 1060 [13a 1 0 800] ------- [0:0 1:0 32 1] [10 0] 1 0
s 76.564331160 _1_ AGT  --- 40 ack 40 [0 0 0 0] ------- [1:0 0:0 32 0] [10 0] 0 0
r 76.564331160 _1_ RTR  --- 40 ack 40 [0 0 0 0] ------- [1:0 0:0 32 0] [10 0] 0 0
s 76.564331160 _1_ RTR  --- 40 ack 60 [0 0 0 0] ------- [1:0 0:0 32 0] [10 0] 0 0
r 76.566488387 _0_ AGT  --- 39 ack 60 [13a 0 1 800] ------- [1:0 0:0 32 0] [9 0] 1 0
s 76.566488387 _0_ AGT  --- 41 tcp 1040 [0 0 0 0] ------- [0:0 1:0 32 0] [13 0] 0 0
r 76.566488387 _0_ RTR  --- 41 tcp 1040 [0 0 0 0] ------- [0:0 1:0 32 0] [13 0] 0 0
s 76.566488387 _0_ RTR  --- 41 tcp 1060 [0 0 0 0] ------- [0:0 1:0 32 1] [13 0] 0 0
r 76.568646022 _0_ AGT  --- 40 ack 60 [13a 0 1 800] ------- [1:0 0:0 32 0] [10 0] 1 0
s 76.568646022 _0_ AGT  --- 42 tcp 1040 [0 0 0 0] ------- [0:0 1:0 32 0] [14 0] 0 0
r 76.568646022 _0_ RTR  --- 42 tcp 1040 [0 0 0 0] ------- [0:0 1:0 32 0] [14 0] 0 0
s 76.568646022 _0_ RTR  --- 42 tcp 1060 [0 0 0 0] ------- [0:0 1:0 32 1] [14 0] 0 0
r 76.578743248 _1_ AGT  --- 36 tcp 1060 [13a 1 0 800] ------- [0:0 1:0 32 1] [11 0] 1 0
s 76.578743248 _1_ AGT  --- 43 ack 40 [0 0 0 0] ------- [1:0 0:0 32 0] [11 0] 0 0
r 76.578743248 _1_ RTR  --- 43 ack 40 [0 0 0 0] ------- [1:0 0:0 32 0] [11 0] 0 0
s 76.578743248 _1_ RTR  --- 43 ack 60 [0 0 0 0] ------- [1:0 0:0 32 0] [11 0] 0 0
r 76.580720473 _0_ AGT  --- 43 ack 60 [13a 0 1 800] ------- [1:0 0:0 32 0] [11 0] 1 0
s 76.580720473 _0_ AGT  --- 44 tcp 1040 [0 0 0 0] ------- [0:0 1:0 32 0] [15 0] 0 0
r 76.580720473 _0_ RTR  --- 44 tcp 1040 [0 0 0 0] ------- [0:0 1:0 32 0] [15 0] 0 0
s 76.580720473 _0_ RTR  --- 44 tcp 1060 [0 0 0 0] ------- [0:0 1:0 32 1] [15 0] 0 0
r 76.590797697 _1_ AGT  --- 38 tcp 1060 [13a 1 0 800] ------- [0:0 1:0 32 1] [12 0] 1 0
s 76.590797697 _1_ AGT  --- 45 ack 40 [0 0 0 0] ------- [1:0 0:0 32 0] [12 0] 0 0
r 76.590797697 _1_ RTR  --- 45 ack 40 [0 0 0 0] ------- [1:0 0:0 32 0] [12 0] 0 0
s 76.590797697 _1_ RTR  --- 45 ack 60 [0 0 0 0] ------- [1:0 0:0 32 0] [12 0] 0 0
r 76.593054920 _0_ AGT  --- 45 ack 60 [13a 0 1 800] ------- [1:0 0:0 32 0] [12 0] 1 0
s 76.593054920 _0_ AGT  --- 46 tcp 1040 [0 0 0 0] ------- [0:0 1:0 32 0] [16 0] 0 0
r 76.593054920 _0_ RTR  --- 46 tcp 1040 [0 0 0 0] ------- [0:0 1:0 32 0] [16 0] 0 0
s 76.593054920 _0_ RTR  --- 46 tcp 1060 [0 0 0 0] ------- [0:0 1:0 32 1] [16 0] 0 0
s 76.593054920 _0_ AGT  --- 47 tcp 1040 [0 0 0 0] ------- [0:0 1:0 32 0] [17 0] 0 0
r 76.593054920 _0_ RTR  --- 47 tcp 1040 [0 0 0 0] ------- [0:0 1:0 32 0] [17 0] 0 0
s 76.593054920 _0_ RTR  --- 47 tcp 1060 [0 0 0 0] ------- [0:0 1:0 32 1] [17 0] 0 0
r 76.603092142 _1_ AGT  --- 41 tcp 1060 [13a 1 0 800] ------- [0:0 1:0 32 1] [13 0] 1 0
s 76.603092142 _1_ AGT  --- 48 ack 40 [0 0 0 0] ------- [1:0 0:0 32 0] [13 0] 0 0
r 76.603092142 _1_ RTR  --- 48 ack 40 [0 0 0 0] ------- [1:0 0:0 32 0] [13 0] 0 0
s 76.603092142 _1_ RTR  --- 48 ack 60 [0 0 0 0] ------- [1:0 0:0 32 0] [13 0] 0 0
r 76.605069363 _0_ AGT  --- 48 ack 60 [13a 0 1 800] ------- [1:0 0:0 32 0] [13 0] 1 0
s 76.605069363 _0_ AGT  --- 49 tcp 1040 [0 0 0 0] ------- [0:0 1:0 32 0] [18 0] 0 0
r 76.605069363 _0_ RTR  --- 49 tcp 1040 [0 0 0 0] ------- [0:0 1:0 32 0] [18 0] 0 0
s 76.605069363 _0_ RTR  --- 49 tcp 1060 [0 0 0 0] ------- [0:0 1:0 32 1] [18 0] 0 0
r 76.615146584 _1_ AGT  --- 42 tcp 1060 [13a 1 0 800] ------- [0:0 1:0 32 1] [14 0] 1 0
s 76.615146584 _1_ AGT  --- 50 ack 40 [0 0 0 0] ------- [1:0 0:0 32 0] [14 0] 0 0
r 76.615146584 _1_ RTR  --- 50 ack 40 [0 0 0 0] ------- [1:0 0:0 32 0] [14 0] 0 0
s 76.615146584 _1_ RTR  --- 50 ack 60 [0 0 0 0] ------- [1:0 0:0 32 0] [14 0] 0 0
r 76.625084210 _1_ AGT  --- 44 tcp 1060 [13a 1 0 800] ------- [0:0 1:0 32 1] [15 0] 1 0
s 76.625084210 _1_ AGT  --- 51 ack 40 [0 0 0 0] ------- [1:0 0:0 32 0] [15 0] 0 0
r 76.625084210 _1_ RTR  --- 51 ack 40 [0 0 0 0] ------- [1:0 0:0 32 0] [15 0] 0 0
s 76.625084210 _1_ RTR  --- 51 ack 60 [0 0 0 0] ------- [1:0 0:0 32 0] [15 0] 0 0
r 76.627121427 _0_ AGT  --- 50 ack 60 [13a 0 1 800] ------- [1:0 0:0 32 0] [14 0] 1 0
s 76.627121427 _0_ AGT  --- 52 tcp 1040 [0 0 0 0] ------- [0:0 1:0 32 0] [19 0] 0 0
r 76.627121427 _0_ RTR  --- 52 tcp 1040 [0 0 0 0] ------- [0:0 1:0 32 0] [19 0] 0 0
s 76.627121427 _0_ RTR  --- 52 tcp 1060 [0 0 0 0] ------- [0:0 1:0 32 1] [19 0] 0 0
r 76.637118645 _1_ AGT  --- 46 tcp 1060 [13a 1 0 800] ------- [0:0 1:0 32 1] [16 0] 1 0
s 76.637118645 _1_ AGT  --- 53 ack 40 [0 0 0 0] ------- [1:0 0:0 32 0] [16 0] 0 0
r 76.637118645 _1_ RTR  --- 53 ack 40 [0 0 0 0] ------- [1:0 0:0 32 0] [16 0] 0 0
s 76.637118645 _1_ RTR  --- 53 ack 60 [0 0 0 0] ------- [1:0 0:0 32 0] [16 0] 0 0
r 76.639375860 _0_ AGT  --- 51 ack 60 [13a 0 1 800] ------- [1:0 0:0 32 0] [15 0] 1 0
s 76.639375860 _0_ AGT  --- 54 tcp 1040 [0 0 0 0] ------- [0:0 1:0 32 0] [20 0] 0 0
r 76.639375860 _0_ RTR  --- 54 tcp 1040 [0 0 0 0] ------- [0:0 1:0 32 0] [20 0] 0 0
s 76.639375860 _0_ RTR  --- 54 tcp 1060 [0 0 0 0] ------- [0:0 1:0 32 1] [20 0] 0 0
r 76.649333076 _1_ AGT  --- 47 tcp 1060 [13a 1 0 800] ------- [0:0 1:0 32 1] [17 0] 1 0
s 76.649333076 _1_ AGT  --- 55 ack 40 [0 0 0 0] ------- [1:0 0:0 32 0] [17 0] 0 0
r 76.649333076 _1_ RTR  --- 55 ack 40 [0 0 0 0] ------- [1:0 0:0 32 0] [17 0] 0 0
s 76.649333076 _1_ RTR  --- 55 ack 60 [0 0 0 0] ------- [1:0 0:0 32 0] [17 0] 0 0
r 76.651690290 _0_ AGT  --- 53 ack 60 [13a 0 1 800] ------- [1:0 0:0 32 0] [16 0] 1 0
s 76.651690290 _0_ AGT  --- 56 tcp 1040 [0 0 0 0] ------- [0:0 1:0 32 0] [21 0] 0 0
r 76.651690290 _0_ RTR  --- 56 tcp 1040 [0 0 0 0] ------- [0:0 1:0 32 0] [21 0] 0 0
s 76.651690290 _0_ RTR  --- 56 tcp 1060 [0 0 0 0] ------- [0:0 1:0 32 1] [21 0] 0 0
r 76.661727504 _1_ AGT  --- 49 tcp 1060 [13a 1 0 800] ------- [0:0 1:0 32 1] [18 0] 1 0
s 76.661727504 _1_ AGT  --- 57 ack 40 [0 0 0 0] ------- [1:0 0:0 32 0] [18 0] 0 0
r 76.661727504 _1_ RTR  --- 57 ack 40 [0 0 0 0] ------- [1:0 0:0 32 0] [18 0] 0 0
s 76.661727504 _1_ RTR  --- 57 ack 60 [0 0 0 0] ------- [1:0 0:0 32 0] [18 0] 0 0
r 76.671825120 _1_ AGT  --- 52 tcp 1060 [13a 1 0 800] ------- [0:0 1:0 32 1] [19 0] 1 0
s 76.671825120 _1_ AGT  --- 58 ack 40 [0 0 0 0] ------- [1:0 0:0 32 0] [19 0] 0 0
r 76.671825120 _1_ RTR  --- 58 ack 40 [0 0 0 0] ------- [1:0 0:0 32 0] [19 0] 0 0
s 76.671825120 _1_ RTR  --- 58 ack 60 [0 0 0 0] ------- [1:0 0:0 32 0] [19 0] 0 0
r 76.681782734 _1_ AGT  --- 54 tcp 1060 [13a 1 0 800] ------- [0:0 1:0 32 1] [20 0] 1 0
s 76.681782734 _1_ AGT  --- 59 ack 40 [0 0 0 0] ------- [1:0 0:0 32 0] [20 0] 0 0
r 76.681782734 _1_ RTR  --- 59 ack 40 [0 0 0 0] ------- [1:0 0:0 32 0] [20 0] 0 0
s 76.681782734 _1_ RTR  --- 59 ack 60 [0 0 0 0] ------- [1:0 0:0 32 0] [20 0] 0 0
r 76.683779943 _0_ AGT  --- 55 ack 60 [13a 0 1 800] ------- [1:0 0:0 32 0] [17 0] 1 0
s 76.683779943 _0_ AGT  --- 60 tcp 1040 [0 0 0 0] ------- [0:0 1:0 32 0] [22 0] 0 0
r 76.683779943 _0_ RTR  --- 60 tcp 1040 [0 0 0 0] ------- [0:0 1:0 32 0] [22 0] 0 0
s 76.683779943 _0_ RTR  --- 60 tcp 1060 [0 0 0 0] ------- [0:0 1:0 32 1] [22 0] 0 0
s 76.683779943 _0_ AGT  --- 61 tcp 1040 [0 0 0 0] ------- [0:0 1:0 32 0] [23 0] 0 0
r 76.683779943 _0_ RTR  --- 61 tcp 1040 [0 0 0 0] ------- [0:0 1:0 32 0] [23 0] 0 0
s 76.683779943 _0_ RTR  --- 61 tcp 1060 [0 0 0 0] ------- [0:0 1:0 32 1] [23 0] 0 0
r 76.685817555 _0_ AGT  --- 57 ack 60 [13a 0 1 800] ------- [1:0 0:0 32 0] [18 0] 1 0
s 76.685817555 _0_ AGT  --- 62 tcp 1040 [0 0 0 0] ------- [0:0 1:0 32 0] [24 0] 0 0
r 76.685817555 _0_ RTR  --- 62 tcp 1040 [0 0 0 0] ------- [0:0 1:0 32 0] [24 0] 0 0
s 76.685817555 _0_ RTR  --- 62 tcp 1060 [0 0 0 0] ------- [0:0 1:0 32 1] [24 0] 0 0
r 76.687755167 _0_ AGT  --- 58 ack 60 [13a 0 1 800] ------- [1:0 0:0 32 0] [19 0] 1 0
s 76.687755167 _0_ AGT  --- 63 tcp 1040 [0 0 0 0] ------- [0:0 1:0 32 0] [25 0] 0 0
r 76.687755167 _0_ RTR  --- 63 tcp 1040 [0 0 0 0] ------- [0:0 1:0 32 0] [25 0] 0 0
s 76.687755167 _0_ RTR  --- 63 tcp 1060 [0 0 0 0] ------- [0:0 1:0 32 1] [25 0] 0 0
r 76.689752778 _0_ AGT  --- 59 ack 60 [13a 0 1 800] ------- [1:0 0:0 32 0] [20 0] 1 0
s 76.689752778 _0_ AGT  --- 64 tcp 1040 [0 0 0 0] ------- [0:0 1:0 32 0] [26 0] 0 0
r 76.689752778 _0_ RTR  --- 64 tcp 1040 [0 0 0 0] ------- [0:0 1:0 32 0] [26 0] 0 0
s 76.689752778 _0_ RTR  --- 64 tcp 1060 [0 0 0 0] ------- [0:0 1:0 32 1] [26 0] 0 0
r 76.699749986 _1_ AGT  --- 56 tcp 1060 [13a 1 0 800] ------- [0:0 1:0 32 1] [21 0] 1 0
s 76.699749986 _1_ AGT  --- 65 ack 40 [0 0 0 0] ------- [1:0 0:0 32 0] [21 0] 0 0
r 76.699749986 _1_ RTR  --- 65 ack 40 [0 0 0 0] ------- [1:0 0:0 32 0] [21 0] 0 0
s 76.699749986 _1_ RTR  --- 65 ack 60 [0 0 0 0] ------- [1:0 0:0 32 0] [21 0] 0 0
r 76.702167192 _0_ AGT  --- 65 ack 60 [13a 0 1 800] ------- [1:0 0:0 32 0] [21 0] 1 0
s 76.702167192 _0_ AGT  --- 66 tcp 1040 [0 0 0 0] ------- [0:0 1:0 32 0] [27 0] 0 0
r 76.702167192 _0_ RTR  --- 66 tcp 1040 [0 0 0 0] ------- [0:0 1:0 32 0] [27 0] 0 0
s 76.702167192 _0_ RTR  --- 66 tcp 1060 [0 0 0 0] ------- [0:0 1:0 32 1] [27 0] 0 0
r 76.712244398 _1_ AGT  --- 60 tcp 1060 [13a 1 0 800] ------- [0:0 1:0 32 1] [22 0] 1 0
s 76.712244398 _1_ AGT  --- 67 ack 40 [0 0 0 0] ------- [1:0 0:0 32 0] [22 0] 0 0
r 76.712244398 _1_ RTR  --- 67 ack 40 [0 0 0 0] ------- [1:0 0:0 32 0] [22 0] 0 0
s 76.712244398 _1_ RTR  --- 67 ack 60 [0 0 0 0] ------- [1:0 0:0 32 0] [22 0] 0 0
r 76.722202005 _1_ AGT  --- 61 tcp 1060 [13a 1 0 800] ------- [0:0 1:0 32 1] [23 0] 1 0
s 76.722202005 _1_ AGT  --- 68 ack 40 [0 0 0 0] ------- [1:0 0:0 32 0] [23 0] 0 0
r 76.722202005 _1_ RTR  --- 68 ack 40 [0 0 0 0] ------- [1:0 0:0 32 0] [23 0] 0 0
s 76.722202005 _1_ RTR  --- 68 ack 60 [0 0 0 0] ------- [1:0 0:0 32 0] [23 0] 0 0
r 76.732159609 _1_ AGT  --- 62 tcp 1060 [13a 1 0 800] ------- [0:0 1:0 32 1] [24 0] 1 0
s 76.732159609 _1_ AGT  --- 69 ack 40 [0 0 0 0] ------- [1:0 0:0 32 0] [24 0] 0 0
r 76.732159609 _1_ RTR  --- 69 ack 40 [0 0 0 0] ------- [1:0 0:0 32 0] [24 0] 0 0
s 76.732159609 _1_ RTR  --- 69 ack 60 [0 0 0 0] ------- [1:0 0:0 32 0] [24 0] 0 0
r 76.742157211 _1_ AGT  --- 63 tcp 1060 [13a 1 0 800] ------- [0:0 1:0 32 1] [25 0] 1 0
s 76.742157211 _1_ AGT  --- 70 ack 40 [0 0 0 0] ------- [1:0 0:0 32 0] [25 0] 0 0
r 76.742157211 _1_ RTR  --- 70 ack 40 [0 0 0 0] ------- [1:0 0:0 32 0] [25 0] 0 0
s 76.742157211 _1_ RTR  --- 70 ack 60 [0 0 0 0] ------- [1:0 0:0 32 0] [25 0] 0 0
r 76.744294411 _0_ AGT  --- 67 ack 60 [13a 0 1 800] ------- [1:0 0:0 32 0] [22 0] 1 0
s 76.744294411 _0_ AGT  --- 71 tcp 1040 [0 0 0 0] ------- [0:0 1:0 32 0] [28 0] 0 0
r 76.744294411 _0_ RTR  --- 71 tcp 1040 [0 0 0 0] ------- [0:0 1:0 32 0] [28 0] 0 0
s 76.744294411 _0_ RTR  --- 71 tcp 1060 [0 0 0 0] ------- [0:0 1:0 32 1] [28 0] 0 0
r 76.746252011 _0_ AGT  --- 68 ack 60 [13a 0 1 800] ------- [1:0 0:0 32 0] [23 0] 1 0
s 76.746252011 _0_ AGT  --- 72 tcp 1040 [0 0 0 0] ------- [0:0 1:0 32 0] [29 0] 0 0
r 76.746252011 _0_ RTR  --- 72 tcp 1040 [0 0 0 0] ------- [0:0 1:0 32 0] [29 0] 0 0
s 76.746252011 _0_ RTR  --- 72 tcp 1060 [0 0 0 0] ------- [0:0 1:0 32 1] [29 0] 0 0
s 76.746252011 _0_ AGT  --- 73 tcp 1040 [0 0 0 0] ------- [0:0 1:0 32 0] [30 0] 0 0
r 76.746252011 _0_ RTR  --- 73 tcp 1040 [0 0 0 0] ------- [0:0 1:0 32 0] [30 0] 0 0
s 76.746252011 _0_ RTR  --- 73 tcp 1060 [0 0 0 0] ------- [0:0 1:0 32 1] [30 0] 0 0
r 76.748209610 _0_ AGT  --- 69 ack 60 [13a 0 1 800] ------- [1:0 0:0 32 0] [24 0] 1 0
s 76.748209610 _0_ AGT  --- 74 tcp 1040 [0 0 0 0] ------- [0:0 1:0 32 0] [31 0] 0 0
r 76.748209610 _0_ RTR  --- 74 tcp 1040 [0 0 0 0] ------- [0:0 1:0 32 0] [31 0] 0 0
s 76.748209610 _0_ RTR  --- 74 tcp 1060 [0 0 0 0] ------- [0:0 1:0 32 1] [31 0] 0 0
r 76.758186810 _1_ AGT  --- 64 tcp 1060 [13a 1 0 800] ------- [0:0 1:0 32 1] [26 0] 1 0
s 76.758186810 _1_ AGT  --- 75 ack 40 [0 0 0 0] ------- [1:0 0:0 32 0] [26 0] 0 0
r 76.758186810 _1_ RTR  --- 75 ack 40 [0 0 0 0] ------- [1:0 0:0 32 0] [26 0] 0 0
s 76.758186810 _1_ RTR  --- 75 ack 60 [0 0 0 0] ------- [1:0 0:0 32 0] [26 0] 0 0
r 76.760484007 _0_ AGT  --- 70 ack 60 [13a 0 1 800] ------- [1:0 0:0 32 0] [25 0] 1 0
s 76.760484007 _0_ AGT  --- 76 tcp 1040 [0 0 0 0] ------- [0:0 1:0 32 0] [32 0] 0 0
r 76.760484007 _0_ RTR  --- 76 tcp 1040 [0 0 0 0] ------- [0:0 1:0 32 0] [32 0] 0 0
s 76.760484007 _0_ RTR  --- 76 tcp 1060 [0 0 0 0] ------- [0:0 1:0 32 1] [32 0] 0 0
r 76.770521205 _1_ AGT  --- 66 tcp 1060 [13a 1 0 800] ------- [0:0 1:0 32 1] [27 0] 1 0
s 76.770521205 _1_ AGT  --- 77 ack 40 [0 0 0 0] ------- [1:0 0:0 32 0] [27 0] 0 0
r 76.770521205 _1_ RTR  --- 77 ack 40 [0 0 0 0] ------- [1:0 0:0 32 0] [27 0] 0 0
s 76.770521205 _1_ RTR  --- 77 ack 60 [0 0 0 0] ------- [1:0 0:0 32 0] [27 0] 0 0
r 76.772758400 _0_ AGT  --- 75 ack 60 [13a 0 1 800] ------- [1:0 0:0 32 0] [26 0] 1 0
s 76.772758400 _0_ AGT  --- 78 tcp 1040 [0 0 0 0] ------- [0:0 1:0 32 0] [33 0] 0 0
r 76.772758400 _0_ RTR  --- 78 tcp 1040 [0 0 0 0] ------- [0:0 1:0 32 0] [33 0] 0 0
s 76.772758400 _0_ RTR  --- 78 tcp 1060 [0 0 0 0] ------- [0:0 1:0 32 1] [33 0] 0 0
r 76.782895596 _1_ AGT  --- 71 tcp 1060 [13a 1 0 800] ------- [0:0 1:0 32 1] [28 0] 1 0
s 76.782895596 _1_ AGT  --- 79 ack 40 [0 0 0 0] ------- [1:0 0:0 32 0] [28 0] 0 0
r 76.782895596 _1_ RTR  --- 79 ack 40 [0 0 0 0] ------- [1:0 0:0 32 0] [28 0] 0 0
s 76.782895596 _1_ RTR  --- 79 ack 60 [0 0 0 0] ------- [1:0 0:0 32 0] [28 0] 0 0
r 76.784972790 _0_ AGT  --- 77 ack 60 [13a 0 1 800] ------- [1:0 0:0 32 0] [27 0] 1 0
s 76.784972790 _0_ AGT  --- 80 tcp 1040 [0 0 0 0] ------- [0:0 1:0 32 0] [34 0] 0 0
r 76.784972790 _0_ RTR  --- 80 tcp 1040 [0 0 0 0] ------- [0:0 1:0 32 0] [34 0] 0 0
s 76.784972790 _0_ RTR  --- 80 tcp 1060 [0 0 0 0] ------- [0:0 1:0 32 1] [34 0] 0 0
r 76.794969984 _1_ AGT  --- 72 tcp 1060 [13a 1 0 800] ------- [0:0 1:0 32 1] [29 0] 1 0
s 76.794969984 _1_ AGT  --- 81 ack 40 [0 0 0 0] ------- [1:0 0:0 32 0] [29 0] 0 0
r 76.794969984 _1_ RTR  --- 81 ack 40 [0 0 0 0] ------- [1:0 0:0 32 0] [29 0] 0 0
s 76.794969984 _1_ RTR  --- 81 ack 60 [0 0 0 0] ------- [1:0 0:0 32 0] [29 0] 0 0
r 76.805087573 _1_ AGT  --- 73 tcp 1060 [13a 1 0 800] ------- [0:0 1:0 32 1] [30 0] 1 0
s 76.805087573 _1_ AGT  --- 82 ack 40 [0 0 0 0] ------- [1:0 0:0 32 0] [30 0] 0 0
r 76.805087573 _1_ RTR  --- 82 ack 40 [0 0 0 0] ------- [1:0 0:0 32 0] [30 0] 0 0
s 76.805087573 _1_ RTR  --- 82 ack 60 [0 0 0 0] ------- [1:0 0:0 32 0] [30 0] 0 0
r 76.815165161 _1_ AGT  --- 74 tcp 1060 [13a 1 0 800] ------- [0:0 1:0 32 1] [31 0] 1 0
s 76.815165161 _1_ AGT  --- 83 ack 40 [0 0 0 0] ------- [1:0 0:0 32 0] [31 0] 0 0
r 76.815165161 _1_ RTR  --- 83 ack 40 [0 0 0 0] ------- [1:0 0:0 32 0] [31 0] 0 0
s 76.815165161 _1_ RTR  --- 83 ack 60 [0 0 0 0] ------- [1:0 0:0 32 0] [31 0] 0 0
r 76.817282350 _0_ AGT  --- 79 ack 60 [13a 0 1 800] ------- [1:0 0:0 32 0] [28 0] 1 0
s 76.817282350 _0_ AGT  --- 84 tcp 1040 [0 0 0 0] ------- [0:0 1:0 32 0] [35 0] 0 0
r 76.817282350 _0_ RTR  --- 84 tcp 1040 [0 0 0 0] ------- [0:0 1:0 32 0] [35 0] 0 0
s 76.817282350 _0_ RTR  --- 84 tcp 1060 [0 0 0 0] ------- [0:0 1:0 32 1] [35 0] 0 0
r 76.819219935 _0_ AGT  --- 81 ack 60 [13a 0 1 800] ------- [1:0 0:0 32 0] [29 0] 1 0
s 76.819219935 _0_ AGT  --- 85 tcp 1040 [0 0 0 0] ------- [0:0 1:0 32 0] [36 0] 0 0
r 76.819219935 _0_ RTR  --- 85 tcp 1040 [0 0 0 0] ------- [0:0 1:0 32 0] [36 0] 0 0
s 76.819219935 _0_ RTR  --- 85 tcp 1060 [0 0 0 0] ------- [0:0 1:0 32 1] [36 0] 0 0
r 76.829237124 _1_ AGT  --- 76 tcp 1060 [13a 1 0 800] ------- [0:0 1:0 32 1] [32 0] 1 0
s 76.829237124 _1_ AGT  --- 86 ack 40 [0 0 0 0] ------- [1:0 0:0 32 0] [32 0] 0 0
r 76.829237124 _1_ RTR  --- 86 ack 40 [0 0 0 0] ------- [1:0 0:0 32 0] [32 0] 0 0
s 76.829237124 _1_ RTR  --- 86 ack 60 [0 0 0 0] ------- [1:0 0:0 32 0] [32 0] 0 0
r 76.839174707 _1_ AGT  --- 78 tcp 1060 [13a 1 0 800] ------- [0:0 1:0 32 1] [33 0] 1 0
s 76.839174707 _1_ AGT  --- 87 ack 40 [0 0 0 0] ------- [1:0 0:0 32 0] [33 0] 0 0
r 76.839174707 _1_ RTR  --- 87 ack 40 [0 0 0 0] ------- [1:0 0:0 32 0] [33 0] 0 0
s 76.839174707 _1_ RTR  --- 87 ack 60 [0 0 0 0] ------- [1:0 0:0 32 0] [33 0] 0 0
r 76.841151892 _0_ AGT  --- 82 ack 60 [13a 0 1 800] ------- [1:0 0:0 32 0] [30 0] 1 0
s 76.841151892 _0_ AGT  --- 88 tcp 1040 [0 0 0 0] ------- [0:0 1:0 32 0] [37 0] 0 0
r 76.841151892 _0_ RTR  --- 88 tcp 1040 [0 0 0 0] ------- [0:0 1:0 32 0] [37 0] 0 0
s 76.841151892 _0_ RTR  --- 88 tcp 1060 [0 0 0 0] ------- [0:0 1:0 32 1] [37 0] 0 0
r 76.851609077 _1_ AGT  --- 80 tcp 1060 [13a 1 0 800] ------- [0:0 1:0 32 1] [34 0] 1 0
s 76.851609077 _1_ AGT  --- 89 ack 40 [0 0 0 0] ------- [1:0 0:0 32 0] [34 0] 0 0
r 76.851609077 _1_ RTR  --- 89 ack 40 [0 0 0 0] ------- [1:0 0:0 32 0] [34 0] 0 0
s 76.851609077 _1_ RTR  --- 89 ack 60 [0 0 0 0] ------- [1:0 0:0 32 0] [34 0] 0 0
r 76.853606261 _0_ AGT  --- 83 ack 60 [13a 0 1 800] ------- [1:0 0:0 32 0] [31 0] 1 0
s 76.853606261 _0_ AGT  --- 90 tcp 1040 [0 0 0 0] ------- [0:0 1:0 32 0] [38 0] 0 0
r 76.853606261 _0_ RTR  --- 90 tcp 1040 [0 0 0 0] ------- [0:0 1:0 32 0] [38 0] 0 0
s 76.853606261 _0_ RTR  --- 90 tcp 1060 [0 0 0 0] ------- [0:0 1:0 32 1] [38 0] 0 0
s 76.853606261 _0_ AGT  --- 91 tcp 1040 [0 0 0 0] ------- [0:0 1:0 32 0] [39 0] 0 0
r 76.853606261 _0_ RTR  --- 91 tcp 1040 [0 0 0 0] ------- [0:0 1:0 32 0] [39 0] 0 0
s 76.853606261 _0_ RTR  --- 91 tcp 1060 [0 0 0 0] ------- [0:0 1:0 32 1] [39 0] 0 0
r 76.864083444 _1_ AGT  --- 84 tcp 1060 [13a 1 0 800] ------- [0:0 1:0 32 1] [35 0] 1 0
s 76.864083444 _1_ AGT  --- 92 ack 40 [0 0 0 0] ------- [1:0 0:0 32 0] [35 0] 0 0
r 76.864083444 _1_ RTR  --- 92 ack 40 [0 0 0 0] ------- [1:0 0:0 32 0] [35 0] 0 0
s 76.864083444 _1_ RTR  --- 92 ack 60 [0 0 0 0] ------- [1:0 0:0 32 0] [35 0] 0 0
r 76.866080626 _0_ AGT  --- 86 ack 60 [13a 0 1 800] ------- [1:0 0:0 32 0] [32 0] 1 0
s 76.866080626 _0_ AGT  --- 93 tcp 1040 [0 0 0 0] ------- [0:0 1:0 32 0] [40 0] 0 0
r 76.866080626 _0_ RTR  --- 93 tcp 1040 [0 0 0 0] ------- [0:0 1:0 32 0] [40 0] 0 0
s 76.866080626 _0_ RTR  --- 93 tcp 1060 [0 0 0 0] ------- [0:0 1:0 32 1] [40 0] 0 0
r 76.876197808 _1_ AGT  --- 85 tcp 1060 [13a 1 0 800] ------- [0:0 1:0 32 1] [36 0] 1 0
s 76.876197808 _1_ AGT  --- 94 ack 40 [0 0 0 0] ------- [1:0 0:0 32 0] [36 0] 0 0
r 76.876197808 _1_ RTR  --- 94 ack 40 [0 0 0 0] ------- [1:0 0:0 32 0] [36 0] 0 0
s 76.876197808 _1_ RTR  --- 94 ack 60 [0 0 0 0] ------- [1:0 0:0 32 0] [36 0] 0 0
r 76.886275381 _1_ AGT  --- 88 tcp 1060 [13a 1 0 800] ------- [0:0 1:0 32 1] [37 0] 1 0
s 76.886275381 _1_ AGT  --- 95 ack 40 [0 0 0 0] ------- [1:0 0:0 32 0] [37 0] 0 0
r 76.886275381 _1_ RTR  --- 95 ack 40 [0 0 0 0] ------- [1:0 0:0 32 0] [37 0] 0 0
s 76.886275381 _1_ RTR  --- 95 ack 60 [0 0 0 0] ------- [1:0 0:0 32 0] [37 0] 0 0
r 76.888432560 _0_ AGT  --- 87 ack 60 [13a 0 1 800] ------- [1:0 0:0 32 0] [33 0] 1 0
s 76.888432560 _0_ AGT  --- 96 tcp 1040 [0 0 0 0] ------- [0:0 1:0 32 0] [41 0] 0 0
r 76.888432560 _0_ RTR  --- 96 tcp 1040 [0 0 0 0] ------- [0:0 1:0 32 0] [41 0] 0 0
s 76.888432560 _0_ RTR  --- 96 tcp 1060 [0 0 0 0] ------- [0:0 1:0 32 1] [41 0] 0 0
r 76.898409738 _1_ AGT  --- 90 tcp 1060 [13a 1 0 800] ------- [0:0 1:0 32 1] [38 0] 1 0
s 76.898409738 _1_ AGT  --- 97 ack 40 [0 0 0 0] ------- [1:0 0:0 32 0] [38 0] 0 0
r 76.898409738 _1_ RTR  --- 97 ack 40 [0 0 0 0] ------- [1:0 0:0 32 0] [38 0] 0 0
s 76.898409738 _1_ RTR  --- 97 ack 60 [0 0 0 0] ------- [1:0 0:0 32 0] [38 0] 0 0
r 76.908447307 _1_ AGT  --- 91 tcp 1060 [13a 1 0 800] ------- [0:0 1:0 32 1] [39 0] 1 0
s 76.908447307 _1_ AGT  --- 98 ack 40 [0 0 0 0] ------- [1:0 0:0 32 0] [39 0] 0 0
r 76.908447307 _1_ RTR  --- 98 ack 40 [0 0 0 0] ------- [1:0 0:0 32 0] [39 0] 0 0
s 76.908447307 _1_ RTR  --- 98 ack 60 [0 0 0 0] ------- [1:0 0:0 32 0] [39 0] 0 0
r 76.918564874 _1_ AGT  --- 93 tcp 1060 [13a 1 0 800] ------- [0:0 1:0 32 1] [40 0] 1 0
s 76.918564874 _1_ AGT  --- 99 ack 40 [0 0 0 0] ------- [1:0 0:0 32 0] [40 0] 0 0
r 76.918564874 _1_ RTR  --- 99 ack 40 [0 0 0 0] ------- [1:0 0:0 32 0] [40 0] 0 0
s 76.918564874 _1_ RTR  --- 99 ack 60 [0 0 0 0] ------- [1:0 0:0 32 0] [40 0] 0 0
r 76.928502439 _1_ AGT  --- 96 tcp 1060 [13a 1 0 800] ------- [0:0 1:0 32 1] [41 0] 1 0
s 76.928502439 _1_ AGT  --- 100 ack 40 [0 0 0 0] ------- [1:0 0:0 32 0] [41 0] 0 0
r 76.928502439 _1_ RTR  --- 100 ack 40 [0 0 0 0] ------- [1:0 0:0 32 0] [41 0] 0 0