n -t * -s 0  -x 0 -y 0 -Z 0 -z 20  -v circle -c black
n -t * -s 1  -x 0 -y 0 -Z 0 -z 20  -v circle -c black
n -t * -s 2  -x 0 -y 0 -Z 0 -z 20  -v circle -c black
n -t * -s 3  -x 0 -y 0 -Z 0 -z 20  -v circle -c black
n -t * -s 4  -x 0 -y 0 -Z 0 -z 20  -v circle -c black
V -t * -v 1.0a5 -a 0
W -t * -x 350 -y 350
A -t * -n 1 -p 0 -o 0xffffffff -c 31 -a 1
A -t * -h 1 -m 2147483647 -s 0
n -t 2.000000 -s 0 -x 253.325522 -y 43.629509 -U -0.558045 -V 4.269378 -T 31.154122
n -t 2.000000 -s 1 -x 43.285586 -y 216.343191 -U 6.278532 -V -3.932472 -T 39.279507
n -t 2.000000 -s 2 -x 301.258391 -y 254.488730 -U -2.234603 -V 0.595036 -T 104.667933
n -t 2.000000 -s 3 -x 2.952787 -y 227.858076 -U 1.378770 -V 0.538899 -T 219.056757
n -t 2.000000 -s 4 -x 36.095718 -y 157.865140 -U 6.811243 -V 5.113490 -T 18.608326
+ -t 2.556838879 -s 1 -d -1 -p cbr -e 512 -c 2 -a 0 -i 0 -k AGT 
- -t 2.556838879 -s 1 -d -1 -p cbr -e 512 -c 2 -a 0 -i 0 -k AGT
h -t 2.556838879 -s 1 -d -1 -p cbr -e 512 -c 2 -a 0 -i 0 -k AGT
+ -t 2.556838879 -s 1 -d -1 -p cbr -e 512 -c 2 -a 0 -i 0 -k RTR 
- -t 2.556838879 -s 1 -d -1 -p cbr -e 512 -c 2 -a 0 -i 0 -k RTR
h -t 2.556838879 -s 1 -d -1 -p cbr -e 512 -c 2 -a 0 -i 0 -k RTR
+ -t 2.556933879 -s 1 -d -1 -p ARP -e 80 -c 2 -a 0 -i 0 -k MAC 
- -t 2.556933879 -s 1 -d -1 -p ARP -e 80 -c 2 -a 0 -i 0 -k MAC
h -t 2.556933879 -s 1 -d -1 -p ARP -e 80 -c 2 -a 0 -i 0 -k MAC
r -t 2.557574030 -s 3 -d -1 -p ARP -e 28 -c 2 -a 0 -i 0 -k MAC
r -t 2.557574058 -s 4 -d -1 -p ARP -e 28 -c 2 -a 0 -i 0 -k MAC
+ -t 2.681923773 -s 1 -d -1 -p cbr -e 512 -c 2 -a 0 -i 1 -k AGT 
- -t 2.681923773 -s 1 -d -1 -p cbr -e 512 -c 2 -a 0 -i 1 -k AGT
h -t 2.681923773 -s 1 -d -1 -p cbr -e 512 -c 2 -a 0 -i 1 -k AGT
+ -t 2.681923773 -s 1 -d -1 -p cbr -e 512 -c 2 -a 0 -i 1 -k RTR 
- -t 2.681923773 -s 1 -d -1 -p cbr -e 512 -c 2 -a 0 -i 1 -k RTR
h -t 2.681923773 -s 1 -d -1 -p cbr -e 512 -c 2 -a 0 -i 1 -k RTR
d -t 2.681923773 -s 1 -d -1 -p cbr -e 512 -c 2 -a 0 -i 0 -k IFQ
+ -t 2.682298773 -s 1 -d -1 -p ARP -e 80 -c 2 -a 0 -i 0 -k MAC 
- -t 2.682298773 -s 1 -d -1 -p ARP -e 80 -c 2 -a 0 -i 0 -k MAC
h -t 2.682298773 -s 1 -d -1 -p ARP -e 80 -c 2 -a 0 -i 0 -k MAC
r -t 2.682938926 -s 3 -d -1 -p ARP -e 28 -c 2 -a 0 -i 0 -k MAC
r -t 2.682938949 -s 4 -d -1 -p ARP -e 28 -c 2 -a 0 -i 0 -k MAC
+ -t 2.828954441 -s 1 -d -1 -p cbr -e 512 -c 2 -a 0 -i 2 -k AGT 
- -t 2.828954441 -s 1 -d -1 -p cbr -e 512 -c 2 -a 0 -i 2 -k AGT
h -t 2.828954441 -s 1 -d -1 -p cbr -e 512 -c 2 -a 0 -i 2 -k AGT
+ -t 2.828954441 -s 1 -d -1 -p cbr -e 512 -c 2 -a 0 -i 2 -k RTR 
- -t 2.828954441 -s 1 -d -1 -p cbr -e 512 -c 2 -a 0 -i 2 -k RTR
h -t 2.828954441 -s 1 -d -1 -p cbr -e 512 -c 2 -a 0 -i 2 -k RTR
d -t 2.828954441 -s 1 -d -1 -p cbr -e 512 -c 2 -a 0 -i 1 -k IFQ
+ -t 2.829209441 -s 1 -d -1 -p ARP -e 80 -c 2 -a 0 -i 0 -k MAC 
- -t 2.829209441 -s 1 -d -1 -p ARP -e 80 -c 2 -a 0 -i 0 -k MAC
h -t 2.829209441 -s 1 -d -1 -p ARP -e 80 -c 2 -a 0 -i 0 -k MAC
r -t 2.829849597 -s 3 -d -1 -p ARP -e 28 -c 2 -a 0 -i 0 -k MAC
r -t 2.829849612 -s 4 -d -1 -p ARP -e 28 -c 2 -a 0 -i 0 -k MAC
+ -t 3.032194884 -s 1 -d -1 -p cbr -e 512 -c 2 -a 0 -i 3 -k AGT 
- -t 3.032194884 -s 1 -d -1 -p cbr -e 512 -c 2 -a 0 -i 3 -k AGT
h -t 3.032194884 -s 1 -d -1 -p cbr -e 512 -c 2 -a 0 -i 3 -k AGT
+ -t 3.032194884 -s 1 -d -1 -p cbr -e 512 -c 2 -a 0 -i 3 -k RTR 
- -t 3.032194884 -s 1 -d -1 -p cbr -e 512 -c 2 -a 0 -i 3 -k RTR
h -t 3.032194884 -s 1 -d -1 -p cbr -e 512 -c 2 -a 0 -i 3 -k RTR
d -t 3.032194884 -s 1 -d -1 -p cbr -e 512 -c 2 -a 0 -i 2 -k IFQ
d -t 3.032194884 -s 1 -d -1 -p cbr -e 512 -c 2 -a 0 -i 3 -k IFQ
+ -t 3.316911170 -s 1 -d -1 -p cbr -e 512 -c 2 -a 0 -i 4 -k AGT 
- -t 3.316911170 -s 1 -d -1 -p cbr -e 512 -c 2 -a 0 -i 4 -k AGT
h -t 3.316911170 -s 1 -d -1 -p cbr -e 512 -c 2 -a 0 -i 4 -k AGT
+ -t 3.316911170 -s 1 -d -1 -p cbr -e 512 -c 2 -a 0 -i 4 -k RTR 
- -t 3.316911170 -s 1 -d -1 -p cbr -e 512 -c 2 -a 0 -i 4 -k RTR
h -t 3.316911170 -s 1 -d -1 -p cbr -e 512 -c 2 -a 0 -i 4 -k RTR
+ -t 3.317206170 -s 1 -d -1 -p ARP -e 80 -c 2 -a 0 -i 0 -k MAC 
- -t 3.317206170 -s 1 -d -1 -p ARP -e 80 -c 2 -a 0 -i 0 -k MAC
h -t 3.317206170 -s 1 -d -1 -p ARP -e 80 -c 2 -a 0 -i 0 -k MAC
r -t 3.317846326 -s 4 -d -1 -p ARP -e 28 -c 2 -a 0 -i 0 -k MAC
r -t 3.317846336 -s 3 -d -1 -p ARP -e 28 -c 2 -a 0 -i 0 -k MAC
+ -t 3.519180934 -s 1 -d -1 -p cbr -e 512 -c 2 -a 0 -i 5 -k AGT 
- -t 3.519180934 -s 1 -d -1 -p cbr -e 512 -c 2 -a 0 -i 5 -k AGT
h -t 3.519180934 -s 1 -d -1 -p cbr -e 512 -c 2 -a 0 -i 5 -k AGT
+ -t 3.519180934 -s 1 -d -1 -p cbr -e 512 -c 2 -a 0 -i 5 -k RTR 
- -t 3.519180934 -s 1 -d -1 -p cbr -e 512 -c 2 -a 0 -i 5 -k RTR
h -t 3.519180934 -s 1 -d -1 -p cbr -e 512 -c 2 -a 0 -i 5 -k RTR
d -t 3.519180934 -s 1 -d -1 -p cbr -e 512 -c 2 -a 0 -i 4 -k IFQ
+ -t 3.519395934 -s 1 -d -1 -p ARP -e 80 -c 2 -a 0 -i 0 -k MAC 
- -t 3.519395934 -s 1 -d -1 -p ARP -e 80 -c 2 -a 0 -i 0 -k MAC
h -t 3.519395934 -s 1 -d -1 -p ARP -e 80 -c 2 -a 0 -i 0 -k MAC
r -t 3.520036085 -s 4 -d -1 -p ARP -e 28 -c 2 -a 0 -i 0 -k MAC
r -t 3.520036105 -s 3 -d -1 -p ARP -e 28 -c 2 -a 0 -i 0 -k MAC
r -t 3.520036764 -s 2 -d -1 -p ARP -e 28 -c 2 -a 0 -i 0 -k MAC
+ -t 3.520331764 -s 2 -d -1 -p RTS -e 44 -c 2 -a 0 -i 0 -k MAC 
- -t 3.520331764 -s 2 -d -1 -p RTS -e 44 -c 2 -a 0 -i 0 -k MAC
h -t 3.520331764 -s 2 -d -1 -p RTS -e 44 -c 2 -a 0 -i 0 -k MAC
r -t 3.520684595 -s 1 -d -1 -p RTS -e 44 -c 2 -a 0 -i 0 -k MAC
+ -t 3.520694595 -s 1 -d -1 -p CTS -e 38 -c 2 -a 0 -i 0 -k MAC 
- -t 3.520694595 -s 1 -d -1 -p CTS -e 38 -c 2 -a 0 -i 0 -k MAC
h -t 3.520694595 -s 1 -d -1 -p CTS -e 38 -c 2 -a 0 -i 0 -k MAC
r -t 3.520999425 -s 2 -d -1 -p CTS -e 38 -c 2 -a 0 -i 0 -k MAC
+ -t 3.521009425 -s 2 -d -1 -p ARP -e 80 -c 2 -a 0 -i 0 -k MAC 
- -t 3.521009425 -s 2 -d -1 -p ARP -e 80 -c 2 -a 0 -i 0 -k MAC
h -t 3.521009425 -s 2 -d -1 -p ARP -e 80 -c 2 -a 0 -i 0 -k MAC
r -t 3.521650256 -s 1 -d -1 -p ARP -e 28 -c 2 -a 0 -i 0 -k MAC
+ -t 3.521660256 -s 1 -d -1 -p ACK -e 38 -c 2 -a 0 -i 0 -k MAC 
- -t 3.521660256 -s 1 -d -1 -p ACK -e 38 -c 2 -a 0 -i 0 -k MAC
h -t 3.521660256 -s 1 -d -1 -p ACK -e 38 -c 2 -a 0 -i 0 -k MAC
r -t 3.521965086 -s 2 -d -1 -p ACK -e 38 -c 2 -a 0 -i 0 -k MAC
+ -t 3.522134256 -s 1 -d -1 -p RTS -e 44 -c 2 -a 0 -i 0 -k MAC 
- -t 3.522134256 -s 1 -d -1 -p RTS -e 44 -c 2 -a 0 -i 0 -k MAC
h -t 3.522134256 -s 1 -d -1 -p RTS -e 44 -c 2 -a 0 -i 0 -k MAC
r -t 3.522487086 -s 2 -d -1 -p RTS -e 44 -c 2 -a 0 -i 0 -k MAC
+ -t 3.522497086 -s 2 -d -1 -p CTS -e 38 -c 2 -a 0 -i 0 -k MAC 
- -t 3.522497086 -s 2 -d -1 -p CTS -e 38 -c 2 -a 0 -i 0 -k MAC
h -t 3.522497086 -s 2 -d -1 -p CTS -e 38 -c 2 -a 0 -i 0 -k MAC
r -t 3.522801917 -s 1 -d -1 -p CTS -e 38 -c 2 -a 0 -i 0 -k MAC
+ -t 3.522811917 -s 1 -d -1 -p cbr -e 564 -c 2 -a 0 -i 5 -k MAC 
- -t 3.522811917 -s 1 -d -1 -p cbr -e 564 -c 2 -a 0 -i 5 -k MAC
h -t 3.522811917 -s 1 -d -1 -p cbr -e 564 -c 2 -a 0 -i 5 -k MAC
r -t 3.527324747 -s 2 -d -1 -p cbr -e 512 -c 2 -a 0 -i 5 -k MAC
+ -t 3.527334747 -s 2 -d -1 -p ACK -e 38 -c 2 -a 0 -i 0 -k MAC 
- -t 3.527334747 -s 2 -d -1 -p ACK -e 38 -c 2 -a 0 -i 0 -k MAC
h -t 3.527334747 -s 2 -d -1 -p ACK -e 38 -c 2 -a 0 -i 0 -k MAC
r -t 3.527349747 -s 2 -d -1 -p cbr -e 512 -c 2 -a 0 -i 5 -k AGT
r -t 3.527639577 -s 1 -d -1 -p ACK -e 38 -c 2 -a 0 -i 0 -k MAC
+ -t 3.654879573 -s 1 -d -1 -p cbr -e 512 -c 2 -a 0 -i 6 -k AGT 
- -t 3.654879573 -s 1 -d -1 -p cbr -e 512 -c 2 -a 0 -i 6 -k AGT
h -t 3.654879573 -s 1 -d -1 -p cbr -e 512 -c 2 -a 0 -i 6 -k AGT
+ -t 3.654879573 -s 1 -d -1 -p cbr -e 512 -c 2 -a 0 -i 6 -k RTR 
- -t 3.654879573 -s 1 -d -1 -p cbr -e 512 -c 2 -a 0 -i 6 -k RTR
h -t 3.654879573 -s 1 -d -1 -p cbr -e 512 -c 2 -a 0 -i 6 -k RTR
+ -t 3.655274573 -s 1 -d -1 -p RTS -e 44 -c 2 -a 0 -i 0 -k MAC 
- -t 3.655274573 -s 1 -d -1 -p RTS -e 44 -c 2 -a 0 -i 0 -k MAC
h -t 3.655274573 -s 1 -d -1 -p RTS -e 44 -c 2 -a 0 -i 0 -k MAC
r -t 3.655627400 -s 2 -d -1 -p RTS -e 44 -c 2 -a 0 -i 0 -k MAC
+ -t 3.655637400 -s 2 -d -1 -p CTS -e 38 -c 2 -a 0 -i 0 -k MAC 
- -t 3.655637400 -s 2 -d -1 -p CTS -e 38 -c 2 -a 0 -i 0 -k MAC
h -t 3.655637400 -s 2 -d -1 -p CTS -e 38 -c 2 -a 0 -i 0 -k MAC
r -t 3.655942228 -s 1 -d -1 -p CTS -e 38 -c 2 -a 0 -i 0 -k MAC
+ -t 3.655952228 -s 1 -d -1 -p cbr -e 564 -c 2 -a 0 -i 6 -k MAC 
- -t 3.655952228 -s 1 -d -1 -p cbr -e 564 -c 2 -a 0 -i 6 -k MAC
h -t 3.655952228 -s 1 -d -1 -p cbr -e 564 -c 2 -a 0 -i 6 -k MAC
r -t 3.660465055 -s 2 -d -1 -p cbr -e 512 -c 2 -a 0 -i 6 -k MAC
+ -t 3.660475055 -s 2 -d -1 -p ACK -e 38 -c 2 -a 0 -i 0 -k MAC 
- -t 3.660475055 -s 2 -d -1 -p ACK -e 38 -c 2 -a 0 -i 0 -k MAC
h -t 3.660475055 -s 2 -d -1 -p ACK -e 38 -c 2 -a 0 -i 0 -k MAC
r -t 3.660490055 -s 2 -d -1 -p cbr -e 512 -c 2 -a 0 -i 6 -k AGT
r -t 3.660779881 -s 1 -d -1 -p ACK -e 38 -c 2 -a 0 -i 0 -k MAC
+ -t 3.803414287 -s 1 -d -1 -p cbr -e 512 -c 2 -a 0 -i 7 -k AGT 
- -t 3.803414287 -s 1 -d -1 -p cbr -e 512 -c 2 -a 0 -i 7 -k AGT
h -t 3.803414287 -s 1 -d -1 -p cbr -e 512 -c 2 -a 0 -i 7 -k AGT
+ -t 3.803414287 -s 1 -d -1 -p cbr -e 512 -c 2 -a 0 -i 7 -k RTR 
- -t 3.803414287 -s 1 -d -1 -p cbr -e 512 -c 2 -a 0 -i 7 -k RTR
h -t 3.803414287 -s 1 -d -1 -p cbr -e 512 -c 2 -a 0 -i 7 -k RTR
+ -t 3.803509287 -s 1 -d -1 -p RTS -e 44 -c 2 -a 0 -i 0 -k MAC 
- -t 3.803509287 -s 1 -d -1 -p RTS -e 44 -c 2 -a 0 -i 0 -k MAC
h -t 3.803509287 -s 1 -d -1 -p RTS -e 44 -c 2 -a 0 -i 0 -k MAC
r -t 3.803862110 -s 2 -d -1 -p RTS -e 44 -c 2 -a 0 -i 0 -k MAC
+ -t 3.803872110 -s 2 -d -1 -p CTS -e 38 -c 2 -a 0 -i 0 -k MAC 
- -t 3.803872110 -s 2 -d -1 -p CTS -e 38 -c 2 -a 0 -i 0 -k MAC
h -t 3.803872110 -s 2 -d -1 -p CTS -e 38 -c 2 -a 0 -i 0 -k MAC
r -t 3.804176934 -s 1 -d -1 -p CTS -e 38 -c 2 -a 0 -i 0 -k MAC
+ -t 3.804186934 -s 1 -d -1 -p cbr -e 564 -c 2 -a 0 -i 7 -k MAC 
- -t 3.804186934 -s 1 -d -1 -p cbr -e 564 -c 2 -a 0 -i 7 -k MAC
h -t 3.804186934 -s 1 -d -1 -p cbr -e 564 -c 2 -a 0 -i 7 -k MAC
r -t 3.808699757 -s 2 -d -1 -p cbr -e 512 -c 2 -a 0 -i 7 -k MAC
+ -t 3.808709757 -s 2 -d -1 -p ACK -e 38 -c 2 -a 0 -i 0 -k MAC 
- -t 3.808709757 -s 2 -d -1 -p ACK -e 38 -c 2 -a 0 -i 0 -k MAC
h -t 3.808709757 -s 2 -d -1 -p ACK -e 38 -c 2 -a 0 -i 0 -k MAC
r -t 3.808724757 -s 2 -d -1 -p cbr -e 512 -c 2 -a 0 -i 7 -k AGT
r -t 3.809014580 -s 1 -d -1 -p ACK -e 38 -c 2 -a 0 -i 0 -k MAC
+ -t 3.992936274 -s 1 -d -1 -p cbr -e 512 -c 2 -a 0 -i 8 -k AGT 
- -t 3.992936274 -s 1 -d -1 -p cbr -e 512 -c 2 -a 0 -i 8 -k AGT
h -t 3.992936274 -s 1 -d -1 -p cbr -e 512 -c 2 -a 0 -i 8 -k AGT
+ -t 3.992936274 -s 1 -d -1 -p cbr -e 512 -c 2 -a 0 -i 8 -k RTR 
- -t 3.992936274 -s 1 -d -1 -p cbr -e 512 -c 2 -a 0 -i 8 -k RTR
h -t 3.992936274 -s 1 -d -1 -p cbr -e 512 -c 2 -a 0 -i 8 -k RTR
+ -t 3.993191274 -s 1 -d -1 -p RTS -e 44 -c 2 -a 0 -i 0 -k MAC 
- -t 3.993191274 -s 1 -d -1 -p RTS -e 44 -c 2 -a 0 -i 0 -k MAC
h -t 3.993191274 -s 1 -d -1 -p RTS -e 44 -c 2 -a 0 -i 0 -k MAC
r -t 3.993544093 -s 2 -d -1 -p RTS -e 44 -c 2 -a 0 -i 0 -k MAC
+ -t 3.993554093 -s 2 -d -1 -p CTS -e 38 -c 2 -a 0 -i 0 -k MAC 
- -t 3.993554093 -s 2 -d -1 -p CTS -e 38 -c 2 -a 0 -i 0 -k MAC
h -t 3.993554093 -s 2 -d -1 -p CTS -e 38 -c 2 -a 0 -i 0 -k MAC
r -t 3.993858911 -s 1 -d -1 -p CTS -e 38 -c 2 -a 0 -i 0 -k MAC
+ -t 3.993868911 -s 1 -d -1 -p cbr -e 564 -c 2 -a 0 -i 8 -k MAC 
- -t 3.993868911 -s 1 -d -1 -p cbr -e 564 -c 2 -a 0 -i 8 -k MAC
h -t 3.993868911 -s 1 -d -1 -p cbr -e 564 -c 2 -a 0 -i 8 -k MAC
r -t 3.998381730 -s 2 -d -1 -p cbr -e 512 -c 2 -a 0 -i 8 -k MAC
+ -t 3.998391730 -s 2 -d -1 -p ACK -e 38 -c 2 -a 0 -i 0 -k MAC 
- -t 3.998391730 -s 2 -d -1 -p ACK -e 38 -c 2 -a 0 -i 0 -k MAC
h -t 3.998391730 -s 2 -d -1 -p ACK -e 38 -c 2 -a 0 -i 0 -k MAC
r -t 3.998406730 -s 2 -d -1 -p cbr -e 512 -c 2 -a 0 -i 8 -k AGT
r -t 3.998696548 -s 1 -d -1 -p ACK -e 38 -c 2 -a 0 -i 0 -k MAC
+ -t 4.234465258 -s 1 -d -1 -p cbr -e 512 -c 2 -a 0 -i 9 -k AGT 
- -t 4.234465258 -s 1 -d -1 -p cbr -e 512 -c 2 -a 0 -i 9 -k AGT
h -t 4.234465258 -s 1 -d -1 -p cbr -e 512 -c 2 -a 0 -i 9 -k AGT
+ -t 4.234465258 -s 1 -d -1 -p cbr -e 512 -c 2 -a 0 -i 9 -k RTR 
- -t 4.234465258 -s 1 -d -1 -p cbr -e 512 -c 2 -a 0 -i 9 -k RTR
h -t 4.234465258 -s 1 -d -1 -p cbr -e 512 -c 2 -a 0 -i 9 -k RTR
+ -t 4.235080258 -s 1 -d -1 -p RTS -e 44 -c 2 -a 0 -i 0 -k MAC 
- -t 4.235080258 -s 1 -d -1 -p RTS -e 44 -c 2 -a 0 -i 0 -k MAC
h -t 4.235080258 -s 1 -d -1 -p RTS -e 44 -c 2 -a 0 -i 0 -k MAC
r -t 4.235433071 -s 2 -d -1 -p RTS -e 44 -c 2 -a 0 -i 0 -k MAC
+ -t 4.235443071 -s 2 -d -1 -p CTS -e 38 -c 2 -a 0 -i 0 -k MAC 
- -t 4.235443071 -s 2 -d -1 -p CTS -e 38 -c 2 -a 0 -i 0 -k MAC
h -t 4.235443071 -s 2 -d -1 -p CTS -e 38 -c 2 -a 0 -i 0 -k MAC
r -t 4.235747884 -s 1 -d -1 -p CTS -e 38 -c 2 -a 0 -i 0 -k MAC
+ -t 4.235757884 -s 1 -d -1 -p cbr -e 564 -c 2 -a 0 -i 9 -k MAC 
- -t 4.235757884 -s 1 -d -1 -p cbr -e 564 -c 2 -a 0 -i 9 -k MAC
h -t 4.235757884 -s 1 -d -1 -p cbr -e 564 -c 2 -a 0 -i 9 -k MAC
r -t 4.240270696 -s 2 -d -1 -p cbr -e 512 -c 2 -a 0 -i 9 -k MAC
+ -t 4.240280696 -s 2 -d -1 -p ACK -e 38 -c 2 -a 0 -i 0 -k MAC 
- -t 4.240280696 -s 2 -d -1 -p ACK -e 38 -c 2 -a 0 -i 0 -k MAC
h -t 4.240280696 -s 2 -d -1 -p ACK -e 38 -c 2 -a 0 -i 0 -k MAC
r -t 4.240295696 -s 2 -d -1 -p cbr -e 512 -c 2 -a 0 -i 9 -k AGT
r -t 4.240585509 -s 1 -d -1 -p ACK -e 38 -c 2 -a 0 -i 0 -k MAC
+ -t 4.569421559 -s 1 -d -1 -p cbr -e 512 -c 2 -a 0 -i 10 -k AGT 
- -t 4.569421559 -s 1 -d -1 -p cbr -e 512 -c 2 -a 0 -i 10 -k AGT
h -t 4.569421559 -s 1 -d -1 -p cbr -e 512 -c 2 -a 0 -i 10 -k AGT
+ -t 4.569421559 -s 1 -d -1 -p cbr -e 512 -c 2 -a 0 -i 10 -k RTR 
- -t 4.569421559 -s 1 -d -1 -p cbr -e 512 -c 2 -a 0 -i 10 -k RTR
h -t 4.569421559 -s 1 -d -1 -p cbr -e 512 -c 2 -a 0 -i 10 -k RTR
+ -t 4.569796559 -s 1 -d -1 -p RTS -e 44 -c 2 -a 0 -i 0 -k MAC 
- -t 4.569796559 -s 1 -d -1 -p RTS -e 44 -c 2 -a 0 -i 0 -k MAC
h -t 4.569796559 -s 1 -d -1 -p RTS -e 44 -c 2 -a 0 -i 0 -k MAC
r -t 4.570149363 -s 2 -d -1 -p RTS -e 44 -c 2 -a 0 -i 0 -k MAC
+ -t 4.570159363 -s 2 -d -1 -p CTS -e 38 -c 2 -a 0 -i 0 -k MAC 
- -t 4.570159363 -s 2 -d -1 -p CTS -e 38 -c 2 -a 0 -i 0 -k MAC
h -t 4.570159363 -s 2 -d -1 -p CTS -e 38 -c 2 -a 0 -i 0 -k MAC
r -t 4.570464168 -s 1 -d -1 -p CTS -e 38 -c 2 -a 0 -i 0 -k MAC
+ -t 4.570474168 -s 1 -d -1 -p cbr -e 564 -c 2 -a 0 -i 10 -k MAC 
- -t 4.570474168 -s 1 -d -1 -p cbr -e 564 -c 2 -a 0 -i 10 -k MAC
h -t 4.570474168 -s 1 -d -1 -p cbr -e 564 -c 2 -a 0 -i 10 -k MAC
r -t 4.574986972 -s 2 -d -1 -p cbr -e 512 -c 2 -a 0 -i 10 -k MAC
+ -t 4.574996972 -s 2 -d -1 -p ACK -e 38 -c 2 -a 0 -i 0 -k MAC 
- -t 4.574996972 -s 2 -d -1 -p ACK -e 38 -c 2 -a 0 -i 0 -k MAC
h -t 4.574996972 -s 2 -d -1 -p ACK -e 38 -c 2 -a 0 -i 0 -k MAC
r -t 4.575011972 -s 2 -d -1 -p cbr -e 512 -c 2 -a 0 -i 10 -k AGT
r -t 4.575301776 -s 1 -d -1 -p ACK -e 38 -c 2 -a 0 -i 0 -k MAC
+ -t 4.907198197 -s 1 -d -1 -p cbr -e 512 -c 2 -a 0 -i 11 -k AGT 
- -t 4.907198197 -s 1 -d -1 -p cbr -e 512 -c 2 -a 0 -i 11 -k AGT
h -t 4.907198197 -s 1 -d -1 -p cbr -e 512 -c 2 -a 0 -i 11 -k AGT
+ -t 4.907198197 -s 1 -d -1 -p cbr -e 512 -c 2 -a 0 -i 11 -k RTR 
- -t 4.907198197 -s 1 -d -1 -p cbr -e 512 -c 2 -a 0 -i 11 -k RTR
h -t 4.907198197 -s 1 -d -1 -p cbr -e 512 -c 2 -a 0 -i 11 -k RTR
+ -t 4.907353197 -s 1 -d -1 -p RTS -e 44 -c 2 -a 0 -i 0 -k MAC 
- -t 4.907353197 -s 1 -d -1 -p RTS -e 44 -c 2 -a 0 -i 0 -k MAC
h -t 4.907353197 -s 1 -d -1 -p RTS -e 44 -c 2 -a 0 -i 0 -k MAC
r -t 4.907705993 -s 2 -d -1 -p RTS -e 44 -c 2 -a 0 -i 0 -k MAC
+ -t 4.907715993 -s 2 -d -1 -p CTS -e 38 -c 2 -a 0 -i 0 -k MAC 
- -t 4.907715993 -s 2 -d -1 -p CTS -e 38 -c 2 -a 0 -i 0 -k MAC
h -t 4.907715993 -s 2 -d -1 -p CTS -e 38 -c 2 -a 0 -i 0 -k MAC
r -t 4.908020789 -s 1 -d -1 -p CTS -e 38 -c 2 -a 0 -i 0 -k MAC
+ -t 4.908030789 -s 1 -d -1 -p cbr -e 564 -c 2 -a 0 -i 11 -k MAC 
- -t 4.908030789 -s 1 -d -1 -p cbr -e 564 -c 2 -a 0 -i 11 -k MAC
h -t 4.908030789 -s 1 -d -1 -p cbr -e 564 -c 2 -a 0 -i 11 -k MAC
r -t 4.912543585 -s 2 -d -1 -p cbr -e 512 -c 2 -a 0 -i 11 -k MAC
+ -t 4.912553585 -s 2 -d -1 -p ACK -e 38 -c 2 -a 0 -i 0 -k MAC 
- -t 4.912553585 -s 2 -d -1 -p ACK -e 38 -c 2 -a 0 -i 0 -k MAC
h -t 4.912553585 -s 2 -d -1 -p ACK -e 38 -c 2 -a 0 -i 0 -k MAC
r -t 4.912568585 -s 2 -d -1 -p cbr -e 512 -c 2 -a 0 -i 11 -k AGT
r -t 4.912858381 -s 1 -d -1 -p ACK -e 38 -c 2 -a 0 -i 0 -k MAC
+ -t 5.258434564 -s 1 -d -1 -p cbr -e 512 -c 2 -a 0 -i 12 -k AGT 
- -t 5.258434564 -s 1 -d -1 -p cbr -e 512 -c 2 -a 0 -i 12 -k AGT
h -t 5.258434564 -s 1 -d -1 -p cbr -e 512 -c 2 -a 0 -i 12 -k AGT
+ -t 5.258434564 -s 1 -d -1 -p cbr -e 512 -c 2 -a 0 -i 12 -k RTR 
- -t 5.258434564 -s 1 -d -1 -p cbr -e 512 -c 2 -a 0 -i 12 -k RTR
h -t 5.258434564 -s 1 -d -1 -p cbr -e 512 -c 2 -a 0 -i 12 -k RTR
+ -t 5.258609564 -s 1 -d -1 -p RTS -e 44 -c 2 -a 0 -i 0 -k MAC 
- -t 5.258609564 -s 1 -d -1 -p RTS -e 44 -c 2 -a 0 -i 0 -k MAC
h -t 5.258609564 -s 1 -d -1 -p RTS -e 44 -c 2 -a 0 -i 0 -k MAC
r -t 5.258962352 -s 2 -d -1 -p RTS -e 44 -c 2 -a 0 -i 0 -k MAC
+ -t 5.258972352 -s 2 -d -1 -p CTS -e 38 -c 2 -a 0 -i 0 -k MAC 
- -t 5.258972352 -s 2 -d -1 -p CTS -e 38 -c 2 -a 0 -i 0 -k MAC
h -t 5.258972352 -s 2 -d -1 -p CTS -e 38 -c 2 -a 0 -i 0 -k MAC
r -t 5.259277139 -s 1 -d -1 -p CTS -e 38 -c 2 -a 0 -i 0 -k MAC
+ -t 5.259287139 -s 1 -d -1 -p cbr -e 564 -c 2 -a 0 -i 12 -k MAC 
- -t 5.259287139 -s 1 -d -1 -p cbr -e 564 -c 2 -a 0 -i 12 -k MAC
h -t 5.259287139 -s 1 -d -1 -p cbr -e 564 -c 2 -a 0 -i 12 -k MAC
r -t 5.263799927 -s 2 -d -1 -p cbr -e 512 -c 2 -a 0 -i 12 -k MAC
+ -t 5.263809927 -s 2 -d -1 -p ACK -e 38 -c 2 -a 0 -i 0 -k MAC 
- -t 5.263809927 -s 2 -d -1 -p ACK -e 38 -c 2 -a 0 -i 0 -k MAC
h -t 5.263809927 -s 2 -d -1 -p ACK -e 38 -c 2 -a 0 -i 0 -k MAC
r -t 5.263824927 -s 2 -d -1 -p cbr -e 512 -c 2 -a 0 -i 12 -k AGT
r -t 5.264114714 -s 1 -d -1 -p ACK -e 38 -c 2 -a 0 -i 0 -k MAC
+ -t 5.484486446 -s 1 -d -1 -p cbr -e 512 -c 2 -a 0 -i 13 -k AGT 
- -t 5.484486446 -s 1 -d -1 -p cbr -e 512 -c 2 -a 0 -i 13 -k AGT
h -t 5.484486446 -s 1 -d -1 -p cbr -e 512 -c 2 -a 0 -i 13 -k AGT
+ -t 5.484486446 -s 1 -d -1 -p cbr -e 512 -c 2 -a 0 -i 13 -k RTR 
- -t 5.484486446 -s 1 -d -1 -p cbr -e 512 -c 2 -a 0 -i 13 -k RTR
h -t 5.484486446 -s 1 -d -1 -p cbr -e 512 -c 2 -a 0 -i 13 -k RTR
+ -t 5.484761446 -s 1 -d -1 -p RTS -e 44 -c 2 -a 0 -i 0 -k MAC 
- -t 5.484761446 -s 1 -d -1 -p RTS -e 44 -c 2 -a 0 -i 0 -k MAC
h -t 5.484761446 -s 1 -d -1 -p RTS -e 44 -c 2 -a 0 -i 0 -k MAC
r -t 5.485114228 -s 2 -d -1 -p RTS -e 44 -c 2 -a 0 -i 0 -k MAC
+ -t 5.485124228 -s 2 -d -1 -p CTS -e 38 -c 2 -a 0 -i 0 -k MAC 
- -t 5.485124228 -s 2 -d -1 -p CTS -e 38 -c 2 -a 0 -i 0 -k MAC
h -t 5.485124228 -s 2 -d -1 -p CTS -e 38 -c 2 -a 0 -i 0 -k MAC
r -t 5.485429010 -s 1 -d -1 -p CTS -e 38 -c 2 -a 0 -i 0 -k MAC
+ -t 5.485439010 -s 1 -d -1 -p cbr -e 564 -c 2 -a 0 -i 13 -k MAC 
- -t 5.485439010 -s 1 -d -1 -p cbr -e 564 -c 2 -a 0 -i 13 -k MAC
h -t 5.485439010 -s 1 -d -1 -p cbr -e 564 -c 2 -a 0 -i 13 -k MAC
r -t 5.489951792 -s 2 -d -1 -p cbr -e 512 -c 2 -a 0 -i 13 -k MAC
+ -t 5.489961792 -s 2 -d -1 -p ACK -e 38 -c 2 -a 0 -i 0 -k MAC 
- -t 5.489961792 -s 2 -d -1 -p ACK -e 38 -c 2 -a 0 -i 0 -k MAC
h -t 5.489961792 -s 2 -d -1 -p ACK -e 38 -c 2 -a 0 -i 0 -k MAC
r -t 5.489976792 -s 2 -d -1 -p cbr -e 512 -c 2 -a 0 -i 13 -k AGT
r -t 5.490266574 -s 1 -d -1 -p ACK -e 38 -c 2 -a 0 -i 0 -k MAC
+ -t 5.846052685 -s 1 -d -1 -p cbr -e 512 -c 2 -a 0 -i 14 -k AGT 
- -t 5.846052685 -s 1 -d -1 -p cbr -e 512 -c 2 -a 0 -i 14 -k AGT
h -t 5.846052685 -s 1 -d -1 -p cbr -e 512 -c 2 -a 0 -i 14 -k AGT
+ -t 5.846052685 -s 1 -d -1 -p cbr -e 512 -c 2 -a 0 -i 14 -k RTR 
- -t 5.846052685 -s 1 -d -1 -p cbr -e 512 -c 2 -a 0 -i 14 -k RTR
h -t 5.846052685 -s 1 -d -1 -p cbr -e 512 -c 2 -a 0 -i 14 -k RTR
+ -t 5.846247685 -s 1 -d -1 -p RTS -e 44 -c 2 -a 0 -i 0 -k MAC 
- -t 5.846247685 -s 1 -d -1 -p RTS -e 44 -c 2 -a 0 -i 0 -k MAC
h -t 5.846247685 -s 1 -d -1 -p RTS -e 44 -c 2 -a 0 -i 0 -k MAC
r -t 5.846600458 -s 2 -d -1 -p RTS -e 44 -c 2 -a 0 -i 0 -k MAC
+ -t 5.846610458 -s 2 -d -1 -p CTS -e 38 -c 2 -a 0 -i 0 -k MAC 
- -t 5.846610458 -s 2 -d -1 -p CTS -e 38 -c 2 -a 0 -i 0 -k MAC
h -t 5.846610458 -s 2 -d -1 -p CTS -e 38 -c 2 -a 0 -i 0 -k MAC
r -t 5.846915231 -s 1 -d -1 -p CTS -e 38 -c 2 -a 0 -i 0 -k MAC
+ -t 5.846925231 -s 1 -d -1 -p cbr -e 564 -c 2 -a 0 -i 14 -k MAC 
- -t 5.846925231 -s 1 -d -1 -p cbr -e 564 -c 2 -a 0 -i 14 -k MAC
h -t 5.846925231 -s 1 -d -1 -p cbr -e 564 -c 2 -a 0 -i 14 -k MAC
r -t 5.851438004 -s 2 -d -1 -p cbr -e 512 -c 2 -a 0 -i 14 -k MAC
+ -t 5.851448004 -s 2 -d -1 -p ACK -e 38 -c 2 -a 0 -i 0 -k MAC 
- -t 5.851448004 -s 2 -d -1 -p ACK -e 38 -c 2 -a 0 -i 0 -k MAC
h -t 5.851448004 -s 2 -d -1 -p ACK -e 38 -c 2 -a 0 -i 0 -k MAC
r -t 5.851463004 -s 2 -d -1 -p cbr -e 512 -c 2 -a 0 -i 14 -k AGT
r -t 5.851752778 -s 1 -d -1 -p ACK -e 38 -c 2 -a 0 -i 0 -k MAC
+ -t 5.985653342 -s 1 -d -1 -p cbr -e 512 -c 2 -a 0 -i 15 -k AGT 
- -t 5.985653342 -s 1 -d -1 -p cbr -e 512 -c 2 -a 0 -i 15 -k AGT
h -t 5.985653342 -s 1 -d -1 -p cbr -e 512 -c 2 -a 0 -i 15 -k AGT
+ -t 5.985653342 -s 1 -d -1 -p cbr -e 512 -c 2 -a 0 -i 15 -k RTR 
- -t 5.985653342 -s 1 -d -1 -p cbr -e 512 -c 2 -a 0 -i 15 -k RTR
h -t 5.985653342 -s 1 -d -1 -p cbr -e 512 -c 2 -a 0 -i 15 -k RTR
+ -t 5.986008342 -s 1 -d -1 -p RTS -e 44 -c 2 -a 0 -i 0 -k MAC 
- -t 5.986008342 -s 1 -d -1 -p RTS -e 44 -c 2 -a 0 -i 0 -k MAC
h -t 5.986008342 -s 1 -d -1 -p RTS -e 44 -c 2 -a 0 -i 0 -k MAC
r -t 5.986361112 -s 2 -d -1 -p RTS -e 44 -c 2 -a 0 -i 0 -k MAC
+ -t 5.986371112 -s 2 -d -1 -p CTS -e 38 -c 2 -a 0 -i 0 -k MAC 
- -t 5.986371112 -s 2 -d -1 -p CTS -e 38 -c 2 -a 0 -i 0 -k MAC
h -t 5.986371112 -s 2 -d -1 -p CTS -e 38 -c 2 -a 0 -i 0 -k MAC
r -t 5.986675881 -s 1 -d -1 -p CTS -e 38 -c 2 -a 0 -i 0 -k MAC
+ -t 5.986685881 -s 1 -d -1 -p cbr -e 564 -c 2 -a 0 -i 15 -k MAC 
- -t 5.986685881 -s 1 -d -1 -p cbr -e 564 -c 2 -a 0 -i 15 -k MAC
h -t 5.986685881 -s 1 -d -1 -p cbr -e 564 -c 2 -a 0 -i 15 -k MAC
r -t 5.991198651 -s 2 -d -1 -p cbr -e 512 -c 2 -a 0 -i 15 -k MAC
+ -t 5.991208651 -s 2 -d -1 -p ACK -e 38 -c 2 -a 0 -i 0 -k MAC 
- -t 5.991208651 -s 2 -d -1 -p ACK -e 38 -c 2 -a 0 -i 0 -k MAC
h -t 5.991208651 -s 2 -d -1 -p ACK -e 38 -c 2 -a 0 -i 0 -k MAC
r -t 5.991223651 -s 2 -d -1 -p cbr -e 512 -c 2 -a 0 -i 15 -k AGT
r -t 5.991513421 -s 1 -d -1 -p ACK -e 38 -c 2 -a 0 -i 0 -k MAC
+ -t 6.194569031 -s 1 -d -1 -p cbr -e 512 -c 2 -a 0 -i 16 -k AGT 
- -t 6.194569031 -s 1 -d -1 -p cbr -e 512 -c 2 -a 0 -i 16 -k AGT
h -t 6.194569031 -s 1 -d -1 -p cbr -e 512 -c 2 -a 0 -i 16 -k AGT
+ -t 6.194569031 -s 1 -d -1 -p cbr -e 512 -c 2 -a 0 -i 16 -k RTR 
- -t 6.194569031 -s 1 -d -1 -p cbr -e 512 -c 2 -a 0 -i 16 -k RTR
h -t 6.194569031 -s 1 -d -1 -p cbr -e 512 -c 2 -a 0 -i 16 -k RTR
+ -t 6.195124031 -s 1 -d -1 -p RTS -e 44 -c 2 -a 0 -i 0 -k MAC 
- -t 6.195124031 -s 1 -d -1 -p RTS -e 44 -c 2 -a 0 -i 0 -k MAC
h -t 6.195124031 -s 1 -d -1 -p RTS -e 44 -c 2 -a 0 -i 0 -k MAC
r -t 6.195476796 -s 2 -d -1 -p RTS -e 44 -c 2 -a 0 -i 0 -k MAC
+ -t 6.195486796 -s 2 -d -1 -p CTS -e 38 -c 2 -a 0 -i 0 -k MAC 
- -t 6.195486796 -s 2 -d -1 -p CTS -e 38 -c 2 -a 0 -i 0 -k MAC
h -t 6.195486796 -s 2 -d -1 -p CTS -e 38 -c 2 -a 0 -i 0 -k MAC
r -t 6.195791561 -s 1 -d -1 -p CTS -e 38 -c 2 -a 0 -i 0 -k MAC
+ -t 6.195801561 -s 1 -d -1 -p cbr -e 564 -c 2 -a 0 -i 16 -k MAC 
- -t 6.195801561 -s 1 -d -1 -p cbr -e 564 -c 2 -a 0 -i 16 -k MAC
h -t 6.195801561 -s 1 -d -1 -p cbr -e 564 -c 2 -a 0 -i 16 -k MAC
r -t 6.200314326 -s 2 -d -1 -p cbr -e 512 -c 2 -a 0 -i 16 -k MAC
+ -t 6.200324326 -s 2 -d -1 -p ACK -e 38 -c 2 -a 0 -i 0 -k MAC 
- -t 6.200324326 -s 2 -d -1 -p ACK -e 38 -c 2 -a 0 -i 0 -k MAC
h -t 6.200324326 -s 2 -d -1 -p ACK -e 38 -c 2 -a 0 -i 0 -k MAC
r -t 6.200339326 -s 2 -d -1 -p cbr -e 512 -c 2 -a 0 -i 16 -k AGT
r -t 6.200629091 -s 1 -d -1 -p ACK -e 38 -c 2 -a 0 -i 0 -k MAC
+ -t 6.383817466 -s 1 -d -1 -p cbr -e 512 -c 2 -a 0 -i 17 -k AGT 
- -t 6.383817466 -s 1 -d -1 -p cbr -e 512 -c 2 -a 0 -i 17 -k AGT
h -t 6.383817466 -s 1 -d -1 -p cbr -e 512 -c 2 -a 0 -i 17 -k AGT
+ -t 6.383817466 -s 1 -d -1 -p cbr -e 512 -c 2 -a 0 -i 17 -k RTR 
- -t 6.383817466 -s 1 -d -1 -p cbr -e 512 -c 2 -a 0 -i 17 -k RTR
h -t 6.383817466 -s 1 -d -1 -p cbr -e 512 -c 2 -a 0 -i 17 -k RTR
+ -t 6.384212466 -s 1 -d -1 -p RTS -e 44 -c 2 -a 0 -i 0 -k MAC 
- -t 6.384212466 -s 1 -d -1 -p RTS -e 44 -c 2 -a 0 -i 0 -k MAC
h -t 6.384212466 -s 1 -d -1 -p RTS -e 44 -c 2 -a 0 -i 0 -k MAC
r -t 6.384565226 -s 2 -d -1 -p RTS -e 44 -c 2 -a 0 -i 0 -k MAC
+ -t 6.384575226 -s 2 -d -1 -p CTS -e 38 -c 2 -a 0 -i 0 -k MAC 
- -t 6.384575226 -s 2 -d -1 -p CTS -e 38 -c 2 -a 0 -i 0 -k MAC
h -t 6.384575226 -s 2 -d -1 -p CTS -e 38 -c 2 -a 0 -i 0 -k MAC
r -t 6.384879987 -s 1 -d -1 -p CTS -e 38 -c 2 -a 0 -i 0 -k MAC
+ -t 6.384889987 -s 1 -d -1 -p cbr -e 564 -c 2 -a 0 -i 17 -k MAC 
- -t 6.384889987 -s 1 -d -1 -p cbr -e 564 -c 2 -a 0 -i 17 -k MAC
h -t 6.384889987 -s 1 -d -1 -p cbr -e 564 -c 2 -a 0 -i 17 -k MAC
r -t 6.389402747 -s 2 -d -1 -p cbr -e 512 -c 2 -a 0 -i 17 -k MAC
+ -t 6.389412747 -s 2 -d -1 -p ACK -e 38 -c 2 -a 0 -i 0 -k MAC 
- -t 6.389412747 -s 2 -d -1 -p ACK -e 38 -c 2 -a 0 -i 0 -k MAC
h -t 6.389412747 -s 2 -d -1 -p ACK -e 38 -c 2 -a 0 -i 0 -k MAC
r -t 6.389427747 -s 2 -d -1 -p cbr -e 512 -c 2 -a 0 -i 17 -k AGT
r -t 6.389717508 -s 1 -d -1 -p ACK -e 38 -c 2 -a 0 -i 0 -k MAC
+ -t 6.727981384 -s 1 -d -1 -p cbr -e 512 -c 2 -a 0 -i 18 -k AGT 
- -t 6.727981384 -s 1 -d -1 -p cbr -e 512 -c 2 -a 0 -i 18 -k AGT
h -t 6.727981384 -s 1 -d -1 -p cbr -e 512 -c 2 -a 0 -i 18 -k AGT
+ -t 6.727981384 -s 1 -d -1 -p cbr -e 512 -c 2 -a 0 -i 18 -k RTR 
- -t 6.727981384 -s 1 -d -1 -p cbr -e 512 -c 2 -a 0 -i 18 -k RTR
h -t 6.727981384 -s 1 -d -1 -p cbr -e 512 -c 2 -a 0 -i 18 -k RTR
+ -t 6.728136384 -s 1 -d -1 -p RTS -e 44 -c 2 -a 0 -i 0 -k MAC 
- -t 6.728136384 -s 1 -d -1 -p RTS -e 44 -c 2 -a 0 -i 0 -k MAC
h -t 6.728136384 -s 1 -d -1 -p RTS -e 44 -c 2 -a 0 -i 0 -k MAC
r -t 6.728489137 -s 2 -d -1 -p RTS -e 44 -c 2 -a 0 -i 0 -k MAC
+ -t 6.728499137 -s 2 -d -1 -p CTS -e 38 -c 2 -a 0 -i 0 -k MAC 
- -t 6.728499137 -s 2 -d -1 -p CTS -e 38 -c 2 -a 0 -i 0 -k MAC
h -t 6.728499137 -s 2 -d -1 -p CTS -e 38 -c 2 -a 0 -i 0 -k MAC
r -t 6.728803889 -s 1 -d -1 -p CTS -e 38 -c 2 -a 0 -i 0 -k MAC
+ -t 6.728813889 -s 1 -d -1 -p cbr -e 564 -c 2 -a 0 -i 18 -k MAC 
- -t 6.728813889 -s 1 -d -1 -p cbr -e 564 -c 2 -a 0 -i 18 -k MAC
h -t 6.728813889 -s 1 -d -1 -p cbr -e 564 -c 2 -a 0 -i 18 -k MAC
r -t 6.733326642 -s 2 -d -1 -p cbr -e 512 -c 2 -a 0 -i 18 -k MAC
+ -t 6.733336642 -s 2 -d -1 -p ACK -e 38 -c 2 -a 0 -i 0 -k MAC 
- -t 6.733336642 -s 2 -d -1 -p ACK -e 38 -c 2 -a 0 -i 0 -k MAC
h -t 6.733336642 -s 2 -d -1 -p ACK -e 38 -c 2 -a 0 -i 0 -k MAC
r -t 6.733351642 -s 2 -d -1 -p cbr -e 512 -c 2 -a 0 -i 18 -k AGT
r -t 6.733641394 -s 1 -d -1 -p ACK -e 38 -c 2 -a 0 -i 0 -k MAC
+ -t 6.959403204 -s 1 -d -1 -p cbr -e 512 -c 2 -a 0 -i 19 -k AGT 
- -t 6.959403204 -s 1 -d -1 -p cbr -e 512 -c 2 -a 0 -i 19 -k AGT
h -t 6.959403204 -s 1 -d -1 -p cbr -e 512 -c 2 -a 0 -i 19 -k AGT
+ -t 6.959403204 -s 1 -d -1 -p cbr -e 512 -c 2 -a 0 -i 19 -k RTR 
- -t 6.959403204 -s 1 -d -1 -p cbr -e 512 -c 2 -a 0 -i 19 -k RTR
h -t 6.959403204 -s 1 -d -1 -p cbr -e 512 -c 2 -a 0 -i 19 -k RTR
+ -t 6.959718204 -s 1 -d -1 -p RTS -e 44 -c 2 -a 0 -i 0 -k MAC 
- -t 6.959718204 -s 1 -d -1 -p RTS -e 44 -c 2 -a 0 -i 0 -k MAC
h -t 6.959718204 -s 1 -d -1 -p RTS -e 44 -c 2 -a 0 -i 0 -k MAC
r -t 6.960070951 -s 2 -d -1 -p RTS -e 44 -c 2 -a 0 -i 0 -k MAC
+ -t 6.960080951 -s 2 -d -1 -p CTS -e 38 -c 2 -a 0 -i 0 -k MAC 
- -t 6.960080951 -s 2 -d -1 -p CTS -e 38 -c 2 -a 0 -i 0 -k MAC
h -t 6.960080951 -s 2 -d -1 -p CTS -e 38 -c 2 -a 0 -i 0 -k MAC
r -t 6.960385698 -s 1 -d -1 -p CTS -e 38 -c 2 -a 0 -i 0 -k MAC
+ -t 6.960395698 -s 1 -d -1 -p cbr -e 564 -c 2 -a 0 -i 19 -k MAC 
- -t 6.960395698 -s 1 -d -1 -p cbr -e 564 -c 2 -a 0 -i 19 -k MAC
h -t 6.960395698 -s 1 -d -1 -p cbr -e 564 -c 2 -a 0 -i 19 -k MAC
r -t 6.964908445 -s 2 -d -1 -p cbr -e 512 -c 2 -a 0 -i 19 -k MAC
+ -t 6.964918445 -s 2 -d -1 -p ACK -e 38 -c 2 -a 0 -i 0 -k MAC 
- -t 6.964918445 -s 2 -d -1 -p ACK -e 38 -c 2 -a 0 -i 0 -k MAC
h -t 6.964918445 -s 2 -d -1 -p ACK -e 38 -c 2 -a 0 -i 0 -k MAC
r -t 6.964933445 -s 2 -d -1 -p cbr -e 512 -c 2 -a 0 -i 19 -k AGT
r -t 6.965223192 -s 1 -d -1 -p ACK -e 38 -c 2 -a 0 -i 0 -k MAC
+ -t 7.130956767 -s 1 -d -1 -p cbr -e 512 -c 2 -a 0 -i 20 -k AGT 
- -t 7.130956767 -s 1 -d -1 -p cbr -e 512 -c 2 -a 0 -i 20 -k AGT
h -t 7.130956767 -s 1 -d -1 -p cbr -e 512 -c 2 -a 0 -i 20 -k AGT
+ -t 7.130956767 -s 1 -d -1 -p cbr -e 512 -c 2 -a 0 -i 20 -k RTR 
- -t 7.130956767 -s 1 -d -1 -p cbr -e 512 -c 2 -a 0 -i 20 -k RTR
h -t 7.130956767 -s 1 -d -1 -p cbr -e 512 -c 2 -a 0 -i 20 -k RTR
+ -t 7.131051767 -s 1 -d -1 -p RTS -e 44 -c 2 -a 0 -i 0 -k MAC 
- -t 7.131051767 -s 1 -d -1 -p RTS -e 44 -c 2 -a 0 -i 0 -k MAC
h -t 7.131051767 -s 1 -d -1 -p RTS -e 44 -c 2 -a 0 -i 0 -k MAC
r -t 7.131404510 -s 2 -d -1 -p RTS -e 44 -c 2 -a 0 -i 0 -k MAC
+ -t 7.131414510 -s 2 -d -1 -p CTS -e 38 -c 2 -a 0 -i 0 -k MAC 
- -t 7.131414510 -s 2 -d -1 -p CTS -e 38 -c 2 -a 0 -i 0 -k MAC
h -t 7.131414510 -s 2 -d -1 -p CTS -e 38 -c 2 -a 0 -i 0 -k MAC
r -t 7.131719253 -s 1 -d -1 -p CTS -e 38 -c 2 -a 0 -i 0 -k MAC
+ -t 7.131729253 -s 1 -d -1 -p cbr -e 564 -c 2 -a 0 -i 20 -k MAC 
- -t 7.131729253 -s 1 -d -1 -p cbr -e 564 -c 2 -a 0 -i 20 -k MAC
h -t 7.131729253 -s 1 -d -1 -p cbr -e 564 -c 2 -a 0 -i 20 -k MAC
r -t 7.136241996 -s 2 -d -1 -p cbr -e 512 -c 2 -a 0 -i 20 -k MAC
+ -t 7.136251996 -s 2 -d -1 -p ACK -e 38 -c 2 -a 0 -i 0 -k MAC 
- -t 7.136251996 -s 2 -d -1 -p ACK -e 38 -c 2 -a 0 -i 0 -k MAC
h -t 7.136251996 -s 2 -d -1 -p ACK -e 38 -c 2 -a 0 -i 0 -k MAC
r -t 7.136266996 -s 2 -d -1 -p cbr -e 512 -c 2 -a 0 -i 20 -k AGT
r -t 7.136556739 -s 1 -d -1 -p ACK -e 38 -c 2 -a 0 -i 0 -k MAC
+ -t 7.449130702 -s 1 -d -1 -p cbr -e 512 -c 2 -a 0 -i 21 -k AGT 
- -t 7.449130702 -s 1 -d -1 -p cbr -e 512 -c 2 -a 0 -i 21 -k AGT
h -t 7.449130702 -s 1 -d -1 -p cbr -e 512 -c 2 -a 0 -i 21 -k AGT
+ -t 7.449130702 -s 1 -d -1 -p cbr -e 512 -c 2 -a 0 -i 21 -k RTR 
- -t 7.449130702 -s 1 -d -1 -p cbr -e 512 -c 2 -a 0 -i 21 -k RTR
h -t 7.449130702 -s 1 -d -1 -p cbr -e 512 -c 2 -a 0 -i 21 -k RTR
+ -t 7.449325702 -s 1 -d -1 -p RTS -e 44 -c 2 -a 0 -i 0 -k MAC 
- -t 7.449325702 -s 1 -d -1 -p RTS -e 44 -c 2 -a 0 -i 0 -k MAC
h -t 7.449325702 -s 1 -d -1 -p RTS -e 44 -c 2 -a 0 -i 0 -k MAC
r -t 7.449678437 -s 2 -d -1 -p RTS -e 44 -c 2 -a 0 -i 0 -k MAC
+ -t 7.449688437 -s 2 -d -1 -p CTS -e 38 -c 2 -a 0 -i 0 -k MAC 