n -t * -s 0  -x 0 -y 0 -Z 0 -z 20  -v circle -c black
n -t * -s 1  -x 0 -y 0 -Z 0 -z 20  -v circle -c black
V -t * -v 1.0a5 -a 0
W -t * -x 250 -y 250
A -t * -n 1 -p 0 -o 0xffffffff -c 31 -a 1
A -t * -h 1 -m 2147483647 -s 0
n -t 0.000000 -s 0 -x 15.000000 -y 15.000000 -U 3.535534 -V 3.535534 -T 9.899495
n -t 0.000000 -s 1 -x 150.000000 -y 150.000000 -U -6.332378 -V -7.739573 -T 14.212670
+ -t 0.500000000 -s 0 -d -1 -p tcp -e 40 -c 2 -a 0 -i 0 -k AGT 
- -t 0.500000000 -s 0 -d -1 -p tcp -e 40 -c 2 -a 0 -i 0 -k AGT
h -t 0.500000000 -s 0 -d -1 -p tcp -e 40 -c 2 -a 0 -i 0 -k AGT
+ -t 0.500000000 -s 0 -d -1 -p tcp -e 40 -c 2 -a 0 -i 0 -k RTR 
- -t 0.500000000 -s 0 -d -1 -p tcp -e 40 -c 2 -a 0 -i 0 -k RTR
h -t 0.500000000 -s 0 -d -1 -p tcp -e 40 -c 2 -a 0 -i 0 -k RTR
+ -t 0.501355000 -s 0 -d -1 -p ARP -e 28 -c 2 -a 0 -i 0 -k MAC 
- -t 0.501355000 -s 0 -d -1 -p ARP -e 28 -c 2 -a 0 -i 0 -k MAC
h -t 0.501355000 -s 0 -d -1 -p ARP -e 28 -c 2 -a 0 -i 0 -k MAC
r -t 0.501467611 -s 1 -d -1 -p ARP -e 28 -c 2 -a 0 -i 0 -k MAC
+ -t 0.503272611 -s 1 -d -1 -p ARP -e 28 -c 2 -a 0 -i 0 -k MAC 
- -t 0.503272611 -s 1 -d -1 -p ARP -e 28 -c 2 -a 0 -i 0 -k MAC
h -t 0.503272611 -s 1 -d -1 -p ARP -e 28 -c 2 -a 0 -i 0 -k MAC
r -t 0.503385223 -s 0 -d -1 -p ARP -e 28 -c 2 -a 0 -i 0 -k MAC
+ -t 0.505140223 -s 0 -d -1 -p tcp -e 40 -c 2 -a 0 -i 0 -k MAC 
- -t 0.505140223 -s 0 -d -1 -p tcp -e 40 -c 2 -a 0 -i 0 -k MAC
h -t 0.505140223 -s 0 -d -1 -p tcp -e 40 -c 2 -a 0 -i 0 -k MAC
r -t 0.505300834 -s 1 -d -1 -p tcp -e 40 -c 2 -a 0 -i 0 -k MAC
r -t 0.505325834 -s 1 -d -1 -p tcp -e 40 -c 2 -a 0 -i 0 -k AGT
+ -t 0.505325834 -s 1 -d -1 -p ack -e 40 -c 2 -a 0 -i 1 -k AGT 
- -t 0.505325834 -s 1 -d -1 -p ack -e 40 -c 2 -a 0 -i 1 -k AGT
h -t 0.505325834 -s 1 -d -1 -p ack -e 40 -c 2 -a 0 -i 1 -k AGT
+ -t 0.505325834 -s 1 -d -1 -p ack -e 40 -c 2 -a 0 -i 1 -k RTR 
- -t 0.505325834 -s 1 -d -1 -p ack -e 40 -c 2 -a 0 -i 1 -k RTR
h -t 0.505325834 -s 1 -d -1 -p ack -e 40 -c 2 -a 0 -i 1 -k RTR
+ -t 0.506500834 -s 1 -d -1 -p ack -e 40 -c 2 -a 0 -i 1 -k MAC 
- -t 0.506500834 -s 1 -d -1 -p ack -e 40 -c 2 -a 0 -i 1 -k MAC
h -t 0.506500834 -s 1 -d -1 -p ack -e 40 -c 2 -a 0 -i 1 -k MAC
r -t 0.506661445 -s 0 -d -1 -p ack -e 40 -c 2 -a 0 -i 1 -k MAC
r -t 0.506686445 -s 0 -d -1 -p ack -e 40 -c 2 -a 0 -i 1 -k AGT
+ -t 0.506686445 -s 0 -d -1 -p tcp -e 1040 -c 2 -a 0 -i 2 -k AGT 
- -t 0.506686445 -s 0 -d -1 -p tcp -e 1040 -c 2 -a 0 -i 2 -k AGT
h -t 0.506686445 -s 0 -d -1 -p tcp -e 1040 -c 2 -a 0 -i 2 -k AGT
+ -t 0.506686445 -s 0 -d -1 -p tcp -e 1040 -c 2 -a 0 -i 2 -k RTR 
- -t 0.506686445 -s 0 -d -1 -p tcp -e 1040 -c 2 -a 0 -i 2 -k RTR
h -t 0.506686445 -s 0 -d -1 -p tcp -e 1040 -c 2 -a 0 -i 2 -k RTR
+ -t 0.506686445 -s 0 -d -1 -p tcp -e 1040 -c 2 -a 0 -i 3 -k AGT 
- -t 0.506686445 -s 0 -d -1 -p tcp -e 1040 -c 2 -a 0 -i 3 -k AGT
h -t 0.506686445 -s 0 -d -1 -p tcp -e 1040 -c 2 -a 0 -i 3 -k AGT
+ -t 0.506686445 -s 0 -d -1 -p tcp -e 1040 -c 2 -a 0 -i 3 -k RTR 
- -t 0.506686445 -s 0 -d -1 -p tcp -e 1040 -c 2 -a 0 -i 3 -k RTR
h -t 0.506686445 -s 0 -d -1 -p tcp -e 1040 -c 2 -a 0 -i 3 -k RTR
+ -t 0.508111445 -s 0 -d -1 -p tcp -e 1040 -c 2 -a 0 -i 2 -k MAC 
- -t 0.508111445 -s 0 -d -1 -p tcp -e 1040 -c 2 -a 0 -i 2 -k MAC
h -t 0.508111445 -s 0 -d -1 -p tcp -e 1040 -c 2 -a 0 -i 2 -k MAC
r -t 0.512272056 -s 1 -d -1 -p tcp -e 1040 -c 2 -a 0 -i 2 -k MAC
r -t 0.512297056 -s 1 -d -1 -p tcp -e 1040 -c 2 -a 0 -i 2 -k AGT
+ -t 0.512297056 -s 1 -d -1 -p ack -e 40 -c 2 -a 0 -i 4 -k AGT 
- -t 0.512297056 -s 1 -d -1 -p ack -e 40 -c 2 -a 0 -i 4 -k AGT
h -t 0.512297056 -s 1 -d -1 -p ack -e 40 -c 2 -a 0 -i 4 -k AGT
+ -t 0.512297056 -s 1 -d -1 -p ack -e 40 -c 2 -a 0 -i 4 -k RTR 
- -t 0.512297056 -s 1 -d -1 -p ack -e 40 -c 2 -a 0 -i 4 -k RTR
h -t 0.512297056 -s 1 -d -1 -p ack -e 40 -c 2 -a 0 -i 4 -k RTR
+ -t 0.512621445 -s 0 -d -1 -p tcp -e 1040 -c 2 -a 0 -i 3 -k MAC 
- -t 0.512621445 -s 0 -d -1 -p tcp -e 1040 -c 2 -a 0 -i 3 -k MAC
h -t 0.512621445 -s 0 -d -1 -p tcp -e 1040 -c 2 -a 0 -i 3 -k MAC
+ -t 0.512772056 -s 1 -d -1 -p ack -e 40 -c 2 -a 0 -i 4 -k MAC 
- -t 0.512772056 -s 1 -d -1 -p ack -e 40 -c 2 -a 0 -i 4 -k MAC
h -t 0.512772056 -s 1 -d -1 -p ack -e 40 -c 2 -a 0 -i 4 -k MAC
r -t 0.516782056 -s 1 -d -1 -p tcp -e 1040 -c 2 -a 0 -i 3 -k MAC
r -t 0.516807056 -s 1 -d -1 -p tcp -e 1040 -c 2 -a 0 -i 3 -k AGT
+ -t 0.516807056 -s 1 -d -1 -p ack -e 40 -c 2 -a 0 -i 5 -k AGT 
- -t 0.516807056 -s 1 -d -1 -p ack -e 40 -c 2 -a 0 -i 5 -k AGT
h -t 0.516807056 -s 1 -d -1 -p ack -e 40 -c 2 -a 0 -i 5 -k AGT
+ -t 0.516807056 -s 1 -d -1 -p ack -e 40 -c 2 -a 0 -i 5 -k RTR 
- -t 0.516807056 -s 1 -d -1 -p ack -e 40 -c 2 -a 0 -i 5 -k RTR
h -t 0.516807056 -s 1 -d -1 -p ack -e 40 -c 2 -a 0 -i 5 -k RTR
+ -t 0.518082056 -s 1 -d -1 -p ack -e 40 -c 2 -a 0 -i 5 -k MAC 
- -t 0.518082056 -s 1 -d -1 -p ack -e 40 -c 2 -a 0 -i 5 -k MAC
h -t 0.518082056 -s 1 -d -1 -p ack -e 40 -c 2 -a 0 -i 5 -k MAC
r -t 0.518242667 -s 0 -d -1 -p ack -e 40 -c 2 -a 0 -i 5 -k MAC
r -t 0.518267667 -s 0 -d -1 -p ack -e 40 -c 2 -a 0 -i 5 -k AGT
+ -t 0.518267667 -s 0 -d -1 -p tcp -e 1040 -c 2 -a 0 -i 6 -k AGT 
- -t 0.518267667 -s 0 -d -1 -p tcp -e 1040 -c 2 -a 0 -i 6 -k AGT
h -t 0.518267667 -s 0 -d -1 -p tcp -e 1040 -c 2 -a 0 -i 6 -k AGT
+ -t 0.518267667 -s 0 -d -1 -p tcp -e 1040 -c 2 -a 0 -i 6 -k RTR 
- -t 0.518267667 -s 0 -d -1 -p tcp -e 1040 -c 2 -a 0 -i 6 -k RTR
h -t 0.518267667 -s 0 -d -1 -p tcp -e 1040 -c 2 -a 0 -i 6 -k RTR
+ -t 0.518267667 -s 0 -d -1 -p tcp -e 1040 -c 2 -a 0 -i 7 -k AGT 
- -t 0.518267667 -s 0 -d -1 -p tcp -e 1040 -c 2 -a 0 -i 7 -k AGT
h -t 0.518267667 -s 0 -d -1 -p tcp -e 1040 -c 2 -a 0 -i 7 -k AGT
+ -t 0.518267667 -s 0 -d -1 -p tcp -e 1040 -c 2 -a 0 -i 7 -k RTR 
- -t 0.518267667 -s 0 -d -1 -p tcp -e 1040 -c 2 -a 0 -i 7 -k RTR
h -t 0.518267667 -s 0 -d -1 -p tcp -e 1040 -c 2 -a 0 -i 7 -k RTR
+ -t 0.518267667 -s 0 -d -1 -p tcp -e 1040 -c 2 -a 0 -i 8 -k AGT 
- -t 0.518267667 -s 0 -d -1 -p tcp -e 1040 -c 2 -a 0 -i 8 -k AGT
h -t 0.518267667 -s 0 -d -1 -p tcp -e 1040 -c 2 -a 0 -i 8 -k AGT
+ -t 0.518267667 -s 0 -d -1 -p tcp -e 1040 -c 2 -a 0 -i 8 -k RTR 
- -t 0.518267667 -s 0 -d -1 -p tcp -e 1040 -c 2 -a 0 -i 8 -k RTR
h -t 0.518267667 -s 0 -d -1 -p tcp -e 1040 -c 2 -a 0 -i 8 -k RTR
+ -t 0.518692667 -s 0 -d -1 -p tcp -e 1040 -c 2 -a 0 -i 6 -k MAC 
- -t 0.518692667 -s 0 -d -1 -p tcp -e 1040 -c 2 -a 0 -i 6 -k MAC
h -t 0.518692667 -s 0 -d -1 -p tcp -e 1040 -c 2 -a 0 -i 6 -k MAC
r -t 0.522853277 -s 1 -d -1 -p tcp -e 1040 -c 2 -a 0 -i 6 -k MAC
r -t 0.522878277 -s 1 -d -1 -p tcp -e 1040 -c 2 -a 0 -i 6 -k AGT
+ -t 0.522878277 -s 1 -d -1 -p ack -e 40 -c 2 -a 0 -i 9 -k AGT 
- -t 0.522878277 -s 1 -d -1 -p ack -e 40 -c 2 -a 0 -i 9 -k AGT
h -t 0.522878277 -s 1 -d -1 -p ack -e 40 -c 2 -a 0 -i 9 -k AGT
+ -t 0.522878277 -s 1 -d -1 -p ack -e 40 -c 2 -a 0 -i 9 -k RTR 
- -t 0.522878277 -s 1 -d -1 -p ack -e 40 -c 2 -a 0 -i 9 -k RTR
h -t 0.522878277 -s 1 -d -1 -p ack -e 40 -c 2 -a 0 -i 9 -k RTR
+ -t 0.523952667 -s 0 -d -1 -p tcp -e 1040 -c 2 -a 0 -i 7 -k MAC 
- -t 0.523952667 -s 0 -d -1 -p tcp -e 1040 -c 2 -a 0 -i 7 -k MAC
h -t 0.523952667 -s 0 -d -1 -p tcp -e 1040 -c 2 -a 0 -i 7 -k MAC
+ -t 0.524853277 -s 1 -d -1 -p ack -e 40 -c 2 -a 0 -i 9 -k MAC 
- -t 0.524853277 -s 1 -d -1 -p ack -e 40 -c 2 -a 0 -i 9 -k MAC
h -t 0.524853277 -s 1 -d -1 -p ack -e 40 -c 2 -a 0 -i 9 -k MAC
r -t 0.528113277 -s 1 -d -1 -p tcp -e 1040 -c 2 -a 0 -i 7 -k MAC
r -t 0.528138277 -s 1 -d -1 -p tcp -e 1040 -c 2 -a 0 -i 7 -k AGT
+ -t 0.528138277 -s 1 -d -1 -p ack -e 40 -c 2 -a 0 -i 10 -k AGT 
- -t 0.528138277 -s 1 -d -1 -p ack -e 40 -c 2 -a 0 -i 10 -k AGT
h -t 0.528138277 -s 1 -d -1 -p ack -e 40 -c 2 -a 0 -i 10 -k AGT
+ -t 0.528138277 -s 1 -d -1 -p ack -e 40 -c 2 -a 0 -i 10 -k RTR 
- -t 0.528138277 -s 1 -d -1 -p ack -e 40 -c 2 -a 0 -i 10 -k RTR
h -t 0.528138277 -s 1 -d -1 -p ack -e 40 -c 2 -a 0 -i 10 -k RTR
+ -t 0.528763277 -s 1 -d -1 -p ack -e 40 -c 2 -a 0 -i 10 -k MAC 
- -t 0.528763277 -s 1 -d -1 -p ack -e 40 -c 2 -a 0 -i 10 -k MAC
h -t 0.528763277 -s 1 -d -1 -p ack -e 40 -c 2 -a 0 -i 10 -k MAC
+ -t 0.528912667 -s 0 -d -1 -p tcp -e 1040 -c 2 -a 0 -i 8 -k MAC 
- -t 0.528912667 -s 0 -d -1 -p tcp -e 1040 -c 2 -a 0 -i 8 -k MAC
h -t 0.528912667 -s 0 -d -1 -p tcp -e 1040 -c 2 -a 0 -i 8 -k MAC
d -t 0.533073277 -s 1 -d -1 -p tcp -e 1040 -c 2 -a 0 -i 8 -k MAC
+ -t 0.718267667 -s 0 -d -1 -p tcp -e 1040 -c 2 -a 0 -i 11 -k AGT 
- -t 0.718267667 -s 0 -d -1 -p tcp -e 1040 -c 2 -a 0 -i 11 -k AGT
h -t 0.718267667 -s 0 -d -1 -p tcp -e 1040 -c 2 -a 0 -i 11 -k AGT
+ -t 0.718267667 -s 0 -d -1 -p tcp -e 1040 -c 2 -a 0 -i 11 -k RTR 
- -t 0.718267667 -s 0 -d -1 -p tcp -e 1040 -c 2 -a 0 -i 11 -k RTR
h -t 0.718267667 -s 0 -d -1 -p tcp -e 1040 -c 2 -a 0 -i 11 -k RTR
+ -t 0.719842667 -s 0 -d -1 -p tcp -e 1040 -c 2 -a 0 -i 11 -k MAC 
- -t 0.719842667 -s 0 -d -1 -p tcp -e 1040 -c 2 -a 0 -i 11 -k MAC
h -t 0.719842667 -s 0 -d -1 -p tcp -e 1040 -c 2 -a 0 -i 11 -k MAC
r -t 0.724003267 -s 1 -d -1 -p tcp -e 1040 -c 2 -a 0 -i 11 -k MAC
r -t 0.724028267 -s 1 -d -1 -p tcp -e 1040 -c 2 -a 0 -i 11 -k AGT
+ -t 0.724028267 -s 1 -d -1 -p ack -e 40 -c 2 -a 0 -i 12 -k AGT 
- -t 0.724028267 -s 1 -d -1 -p ack -e 40 -c 2 -a 0 -i 12 -k AGT
h -t 0.724028267 -s 1 -d -1 -p ack -e 40 -c 2 -a 0 -i 12 -k AGT
+ -t 0.724028267 -s 1 -d -1 -p ack -e 40 -c 2 -a 0 -i 12 -k RTR 
- -t 0.724028267 -s 1 -d -1 -p ack -e 40 -c 2 -a 0 -i 12 -k RTR
h -t 0.724028267 -s 1 -d -1 -p ack -e 40 -c 2 -a 0 -i 12 -k RTR
+ -t 0.725653267 -s 1 -d -1 -p ack -e 40 -c 2 -a 0 -i 12 -k MAC 
- -t 0.725653267 -s 1 -d -1 -p ack -e 40 -c 2 -a 0 -i 12 -k MAC
h -t 0.725653267 -s 1 -d -1 -p ack -e 40 -c 2 -a 0 -i 12 -k MAC
r -t 0.725813867 -s 0 -d -1 -p ack -e 40 -c 2 -a 0 -i 12 -k MAC
r -t 0.725838867 -s 0 -d -1 -p ack -e 40 -c 2 -a 0 -i 12 -k AGT
+ -t 0.725838867 -s 0 -d -1 -p tcp -e 1040 -c 2 -a 0 -i 13 -k AGT 
- -t 0.725838867 -s 0 -d -1 -p tcp -e 1040 -c 2 -a 0 -i 13 -k AGT
h -t 0.725838867 -s 0 -d -1 -p tcp -e 1040 -c 2 -a 0 -i 13 -k AGT
+ -t 0.725838867 -s 0 -d -1 -p tcp -e 1040 -c 2 -a 0 -i 13 -k RTR 
- -t 0.725838867 -s 0 -d -1 -p tcp -e 1040 -c 2 -a 0 -i 13 -k RTR
h -t 0.725838867 -s 0 -d -1 -p tcp -e 1040 -c 2 -a 0 -i 13 -k RTR
+ -t 0.725838867 -s 0 -d -1 -p tcp -e 1040 -c 2 -a 0 -i 14 -k AGT 
- -t 0.725838867 -s 0 -d -1 -p tcp -e 1040 -c 2 -a 0 -i 14 -k AGT
h -t 0.725838867 -s 0 -d -1 -p tcp -e 1040 -c 2 -a 0 -i 14 -k AGT
+ -t 0.725838867 -s 0 -d -1 -p tcp -e 1040 -c 2 -a 0 -i 14 -k RTR 
- -t 0.725838867 -s 0 -d -1 -p tcp -e 1040 -c 2 -a 0 -i 14 -k RTR
h -t 0.725838867 -s 0 -d -1 -p tcp -e 1040 -c 2 -a 0 -i 14 -k RTR
+ -t 0.726413867 -s 0 -d -1 -p tcp -e 1040 -c 2 -a 0 -i 13 -k MAC 
- -t 0.726413867 -s 0 -d -1 -p tcp -e 1040 -c 2 -a 0 -i 13 -k MAC
h -t 0.726413867 -s 0 -d -1 -p tcp -e 1040 -c 2 -a 0 -i 13 -k MAC
r -t 0.730574468 -s 1 -d -1 -p tcp -e 1040 -c 2 -a 0 -i 13 -k MAC
r -t 0.730599468 -s 1 -d -1 -p tcp -e 1040 -c 2 -a 0 -i 13 -k AGT
+ -t 0.730599468 -s 1 -d -1 -p ack -e 40 -c 2 -a 0 -i 15 -k AGT 
- -t 0.730599468 -s 1 -d -1 -p ack -e 40 -c 2 -a 0 -i 15 -k AGT
h -t 0.730599468 -s 1 -d -1 -p ack -e 40 -c 2 -a 0 -i 15 -k AGT
+ -t 0.730599468 -s 1 -d -1 -p ack -e 40 -c 2 -a 0 -i 15 -k RTR 
- -t 0.730599468 -s 1 -d -1 -p ack -e 40 -c 2 -a 0 -i 15 -k RTR
h -t 0.730599468 -s 1 -d -1 -p ack -e 40 -c 2 -a 0 -i 15 -k RTR
+ -t 0.731824468 -s 1 -d -1 -p ack -e 40 -c 2 -a 0 -i 15 -k MAC 
- -t 0.731824468 -s 1 -d -1 -p ack -e 40 -c 2 -a 0 -i 15 -k MAC
h -t 0.731824468 -s 1 -d -1 -p ack -e 40 -c 2 -a 0 -i 15 -k MAC
r -t 0.731985067 -s 0 -d -1 -p ack -e 40 -c 2 -a 0 -i 15 -k MAC
r -t 0.732010067 -s 0 -d -1 -p ack -e 40 -c 2 -a 0 -i 15 -k AGT
+ -t 0.732010067 -s 0 -d -1 -p tcp -e 1040 -c 2 -a 0 -i 16 -k AGT 
- -t 0.732010067 -s 0 -d -1 -p tcp -e 1040 -c 2 -a 0 -i 16 -k AGT
h -t 0.732010067 -s 0 -d -1 -p tcp -e 1040 -c 2 -a 0 -i 16 -k AGT
+ -t 0.732010067 -s 0 -d -1 -p tcp -e 1040 -c 2 -a 0 -i 16 -k RTR 
- -t 0.732010067 -s 0 -d -1 -p tcp -e 1040 -c 2 -a 0 -i 16 -k RTR
h -t 0.732010067 -s 0 -d -1 -p tcp -e 1040 -c 2 -a 0 -i 16 -k RTR
+ -t 0.732223867 -s 0 -d -1 -p tcp -e 1040 -c 2 -a 0 -i 14 -k MAC 
- -t 0.732223867 -s 0 -d -1 -p tcp -e 1040 -c 2 -a 0 -i 14 -k MAC
h -t 0.732223867 -s 0 -d -1 -p tcp -e 1040 -c 2 -a 0 -i 14 -k MAC
r -t 0.736384467 -s 1 -d -1 -p tcp -e 1040 -c 2 -a 0 -i 14 -k MAC
r -t 0.736409467 -s 1 -d -1 -p tcp -e 1040 -c 2 -a 0 -i 14 -k AGT
+ -t 0.736409467 -s 1 -d -1 -p ack -e 40 -c 2 -a 0 -i 17 -k AGT 
- -t 0.736409467 -s 1 -d -1 -p ack -e 40 -c 2 -a 0 -i 17 -k AGT
h -t 0.736409467 -s 1 -d -1 -p ack -e 40 -c 2 -a 0 -i 17 -k AGT
+ -t 0.736409467 -s 1 -d -1 -p ack -e 40 -c 2 -a 0 -i 17 -k RTR 
- -t 0.736409467 -s 1 -d -1 -p ack -e 40 -c 2 -a 0 -i 17 -k RTR
h -t 0.736409467 -s 1 -d -1 -p ack -e 40 -c 2 -a 0 -i 17 -k RTR
+ -t 0.736883867 -s 0 -d -1 -p tcp -e 1040 -c 2 -a 0 -i 16 -k MAC 
- -t 0.736883867 -s 0 -d -1 -p tcp -e 1040 -c 2 -a 0 -i 16 -k MAC
h -t 0.736883867 -s 0 -d -1 -p tcp -e 1040 -c 2 -a 0 -i 16 -k MAC
+ -t 0.737534467 -s 1 -d -1 -p ack -e 40 -c 2 -a 0 -i 17 -k MAC 
- -t 0.737534467 -s 1 -d -1 -p ack -e 40 -c 2 -a 0 -i 17 -k MAC
h -t 0.737534467 -s 1 -d -1 -p ack -e 40 -c 2 -a 0 -i 17 -k MAC
r -t 0.741044467 -s 1 -d -1 -p tcp -e 1040 -c 2 -a 0 -i 16 -k MAC
r -t 0.741069467 -s 1 -d -1 -p tcp -e 1040 -c 2 -a 0 -i 16 -k AGT
+ -t 0.741069467 -s 1 -d -1 -p ack -e 40 -c 2 -a 0 -i 18 -k AGT 
- -t 0.741069467 -s 1 -d -1 -p ack -e 40 -c 2 -a 0 -i 18 -k AGT
h -t 0.741069467 -s 1 -d -1 -p ack -e 40 -c 2 -a 0 -i 18 -k AGT
+ -t 0.741069467 -s 1 -d -1 -p ack -e 40 -c 2 -a 0 -i 18 -k RTR 
- -t 0.741069467 -s 1 -d -1 -p ack -e 40 -c 2 -a 0 -i 18 -k RTR
h -t 0.741069467 -s 1 -d -1 -p ack -e 40 -c 2 -a 0 -i 18 -k RTR
+ -t 0.741544467 -s 1 -d -1 -p ack -e 40 -c 2 -a 0 -i 18 -k MAC 
- -t 0.741544467 -s 1 -d -1 -p ack -e 40 -c 2 -a 0 -i 18 -k MAC
h -t 0.741544467 -s 1 -d -1 -p ack -e 40 -c 2 -a 0 -i 18 -k MAC
r -t 0.741705066 -s 0 -d -1 -p ack -e 40 -c 2 -a 0 -i 18 -k MAC
r -t 0.741730066 -s 0 -d -1 -p ack -e 40 -c 2 -a 0 -i 18 -k AGT
+ -t 0.741730066 -s 0 -d -1 -p tcp -e 1040 -c 2 -a 0 -i 19 -k AGT 
- -t 0.741730066 -s 0 -d -1 -p tcp -e 1040 -c 2 -a 0 -i 19 -k AGT
h -t 0.741730066 -s 0 -d -1 -p tcp -e 1040 -c 2 -a 0 -i 19 -k AGT
+ -t 0.741730066 -s 0 -d -1 -p tcp -e 1040 -c 2 -a 0 -i 19 -k RTR 
- -t 0.741730066 -s 0 -d -1 -p tcp -e 1040 -c 2 -a 0 -i 19 -k RTR
h -t 0.741730066 -s 0 -d -1 -p tcp -e 1040 -c 2 -a 0 -i 19 -k RTR
+ -t 0.741730066 -s 0 -d -1 -p tcp -e 1040 -c 2 -a 0 -i 20 -k AGT 
- -t 0.741730066 -s 0 -d -1 -p tcp -e 1040 -c 2 -a 0 -i 20 -k AGT
h -t 0.741730066 -s 0 -d -1 -p tcp -e 1040 -c 2 -a 0 -i 20 -k AGT
+ -t 0.741730066 -s 0 -d -1 -p tcp -e 1040 -c 2 -a 0 -i 20 -k RTR 
- -t 0.741730066 -s 0 -d -1 -p tcp -e 1040 -c 2 -a 0 -i 20 -k RTR
h -t 0.741730066 -s 0 -d -1 -p tcp -e 1040 -c 2 -a 0 -i 20 -k RTR
+ -t 0.742205066 -s 0 -d -1 -p tcp -e 1040 -c 2 -a 0 -i 19 -k MAC 
- -t 0.742205066 -s 0 -d -1 -p tcp -e 1040 -c 2 -a 0 -i 19 -k MAC
h -t 0.742205066 -s 0 -d -1 -p tcp -e 1040 -c 2 -a 0 -i 19 -k MAC
r -t 0.746365666 -s 1 -d -1 -p tcp -e 1040 -c 2 -a 0 -i 19 -k MAC
r -t 0.746390666 -s 1 -d -1 -p tcp -e 1040 -c 2 -a 0 -i 19 -k AGT
+ -t 0.746390666 -s 1 -d -1 -p ack -e 40 -c 2 -a 0 -i 21 -k AGT 
- -t 0.746390666 -s 1 -d -1 -p ack -e 40 -c 2 -a 0 -i 21 -k AGT
h -t 0.746390666 -s 1 -d -1 -p ack -e 40 -c 2 -a 0 -i 21 -k AGT
+ -t 0.746390666 -s 1 -d -1 -p ack -e 40 -c 2 -a 0 -i 21 -k RTR 
- -t 0.746390666 -s 1 -d -1 -p ack -e 40 -c 2 -a 0 -i 21 -k RTR
h -t 0.746390666 -s 1 -d -1 -p ack -e 40 -c 2 -a 0 -i 21 -k RTR
+ -t 0.746665066 -s 0 -d -1 -p tcp -e 1040 -c 2 -a 0 -i 20 -k MAC 
- -t 0.746665066 -s 0 -d -1 -p tcp -e 1040 -c 2 -a 0 -i 20 -k MAC
h -t 0.746665066 -s 0 -d -1 -p tcp -e 1040 -c 2 -a 0 -i 20 -k MAC
+ -t 0.746665666 -s 1 -d -1 -p ack -e 40 -c 2 -a 0 -i 21 -k MAC 
- -t 0.746665666 -s 1 -d -1 -p ack -e 40 -c 2 -a 0 -i 21 -k MAC
h -t 0.746665666 -s 1 -d -1 -p ack -e 40 -c 2 -a 0 -i 21 -k MAC
r -t 0.750825666 -s 1 -d -1 -p tcp -e 1040 -c 2 -a 0 -i 20 -k MAC
r -t 0.750850666 -s 1 -d -1 -p tcp -e 1040 -c 2 -a 0 -i 20 -k AGT
+ -t 0.750850666 -s 1 -d -1 -p ack -e 40 -c 2 -a 0 -i 22 -k AGT 
- -t 0.750850666 -s 1 -d -1 -p ack -e 40 -c 2 -a 0 -i 22 -k AGT
h -t 0.750850666 -s 1 -d -1 -p ack -e 40 -c 2 -a 0 -i 22 -k AGT
+ -t 0.750850666 -s 1 -d -1 -p ack -e 40 -c 2 -a 0 -i 22 -k RTR 
- -t 0.750850666 -s 1 -d -1 -p ack -e 40 -c 2 -a 0 -i 22 -k RTR
h -t 0.750850666 -s 1 -d -1 -p ack -e 40 -c 2 -a 0 -i 22 -k RTR
+ -t 0.752425666 -s 1 -d -1 -p ack -e 40 -c 2 -a 0 -i 22 -k MAC 
- -t 0.752425666 -s 1 -d -1 -p ack -e 40 -c 2 -a 0 -i 22 -k MAC
h -t 0.752425666 -s 1 -d -1 -p ack -e 40 -c 2 -a 0 -i 22 -k MAC
r -t 0.752586265 -s 0 -d -1 -p ack -e 40 -c 2 -a 0 -i 22 -k MAC
r -t 0.752611265 -s 0 -d -1 -p ack -e 40 -c 2 -a 0 -i 22 -k AGT
+ -t 0.752611265 -s 0 -d -1 -p tcp -e 1040 -c 2 -a 0 -i 23 -k AGT 
- -t 0.752611265 -s 0 -d -1 -p tcp -e 1040 -c 2 -a 0 -i 23 -k AGT
h -t 0.752611265 -s 0 -d -1 -p tcp -e 1040 -c 2 -a 0 -i 23 -k AGT
+ -t 0.752611265 -s 0 -d -1 -p tcp -e 1040 -c 2 -a 0 -i 23 -k RTR 
- -t 0.752611265 -s 0 -d -1 -p tcp -e 1040 -c 2 -a 0 -i 23 -k RTR
h -t 0.752611265 -s 0 -d -1 -p tcp -e 1040 -c 2 -a 0 -i 23 -k RTR
+ -t 0.752611265 -s 0 -d -1 -p tcp -e 1040 -c 2 -a 0 -i 24 -k AGT 
- -t 0.752611265 -s 0 -d -1 -p tcp -e 1040 -c 2 -a 0 -i 24 -k AGT
h -t 0.752611265 -s 0 -d -1 -p tcp -e 1040 -c 2 -a 0 -i 24 -k AGT
+ -t 0.752611265 -s 0 -d -1 -p tcp -e 1040 -c 2 -a 0 -i 24 -k RTR 
- -t 0.752611265 -s 0 -d -1 -p tcp -e 1040 -c 2 -a 0 -i 24 -k RTR
h -t 0.752611265 -s 0 -d -1 -p tcp -e 1040 -c 2 -a 0 -i 24 -k RTR
+ -t 0.752611265 -s 0 -d -1 -p tcp -e 1040 -c 2 -a 0 -i 25 -k AGT 
- -t 0.752611265 -s 0 -d -1 -p tcp -e 1040 -c 2 -a 0 -i 25 -k AGT
h -t 0.752611265 -s 0 -d -1 -p tcp -e 1040 -c 2 -a 0 -i 25 -k AGT
+ -t 0.752611265 -s 0 -d -1 -p tcp -e 1040 -c 2 -a 0 -i 25 -k RTR 
- -t 0.752611265 -s 0 -d -1 -p tcp -e 1040 -c 2 -a 0 -i 25 -k RTR
h -t 0.752611265 -s 0 -d -1 -p tcp -e 1040 -c 2 -a 0 -i 25 -k RTR
+ -t 0.752686265 -s 0 -d -1 -p tcp -e 1040 -c 2 -a 0 -i 23 -k MAC 
- -t 0.752686265 -s 0 -d -1 -p tcp -e 1040 -c 2 -a 0 -i 23 -k MAC
h -t 0.752686265 -s 0 -d -1 -p tcp -e 1040 -c 2 -a 0 -i 23 -k MAC
r -t 0.756846863 -s 1 -d -1 -p tcp -e 1040 -c 2 -a 0 -i 23 -k MAC
r -t 0.756871863 -s 1 -d -1 -p tcp -e 1040 -c 2 -a 0 -i 23 -k AGT
+ -t 0.756871863 -s 1 -d -1 -p ack -e 40 -c 2 -a 0 -i 26 -k AGT 
- -t 0.756871863 -s 1 -d -1 -p ack -e 40 -c 2 -a 0 -i 26 -k AGT
h -t 0.756871863 -s 1 -d -1 -p ack -e 40 -c 2 -a 0 -i 26 -k AGT
+ -t 0.756871863 -s 1 -d -1 -p ack -e 40 -c 2 -a 0 -i 26 -k RTR 
- -t 0.756871863 -s 1 -d -1 -p ack -e 40 -c 2 -a 0 -i 26 -k RTR
h -t 0.756871863 -s 1 -d -1 -p ack -e 40 -c 2 -a 0 -i 26 -k RTR
+ -t 0.757396863 -s 1 -d -1 -p ack -e 40 -c 2 -a 0 -i 26 -k MAC 
- -t 0.757396863 -s 1 -d -1 -p ack -e 40 -c 2 -a 0 -i 26 -k MAC
h -t 0.757396863 -s 1 -d -1 -p ack -e 40 -c 2 -a 0 -i 26 -k MAC
r -t 0.757557462 -s 0 -d -1 -p ack -e 40 -c 2 -a 0 -i 26 -k MAC
r -t 0.757582462 -s 0 -d -1 -p ack -e 40 -c 2 -a 0 -i 26 -k AGT
+ -t 0.757582462 -s 0 -d -1 -p tcp -e 1040 -c 2 -a 0 -i 27 -k AGT 
- -t 0.757582462 -s 0 -d -1 -p tcp -e 1040 -c 2 -a 0 -i 27 -k AGT
h -t 0.757582462 -s 0 -d -1 -p tcp -e 1040 -c 2 -a 0 -i 27 -k AGT
+ -t 0.757582462 -s 0 -d -1 -p tcp -e 1040 -c 2 -a 0 -i 27 -k RTR 
- -t 0.757582462 -s 0 -d -1 -p tcp -e 1040 -c 2 -a 0 -i 27 -k RTR
h -t 0.757582462 -s 0 -d -1 -p tcp -e 1040 -c 2 -a 0 -i 27 -k RTR
+ -t 0.758296265 -s 0 -d -1 -p tcp -e 1040 -c 2 -a 0 -i 24 -k MAC 
- -t 0.758296265 -s 0 -d -1 -p tcp -e 1040 -c 2 -a 0 -i 24 -k MAC
h -t 0.758296265 -s 0 -d -1 -p tcp -e 1040 -c 2 -a 0 -i 24 -k MAC
r -t 0.762456863 -s 1 -d -1 -p tcp -e 1040 -c 2 -a 0 -i 24 -k MAC
r -t 0.762481863 -s 1 -d -1 -p tcp -e 1040 -c 2 -a 0 -i 24 -k AGT
+ -t 0.762481863 -s 1 -d -1 -p ack -e 40 -c 2 -a 0 -i 28 -k AGT 
- -t 0.762481863 -s 1 -d -1 -p ack -e 40 -c 2 -a 0 -i 28 -k AGT
h -t 0.762481863 -s 1 -d -1 -p ack -e 40 -c 2 -a 0 -i 28 -k AGT
+ -t 0.762481863 -s 1 -d -1 -p ack -e 40 -c 2 -a 0 -i 28 -k RTR 
- -t 0.762481863 -s 1 -d -1 -p ack -e 40 -c 2 -a 0 -i 28 -k RTR
h -t 0.762481863 -s 1 -d -1 -p ack -e 40 -c 2 -a 0 -i 28 -k RTR
+ -t 0.763056863 -s 1 -d -1 -p ack -e 40 -c 2 -a 0 -i 28 -k MAC 
- -t 0.763056863 -s 1 -d -1 -p ack -e 40 -c 2 -a 0 -i 28 -k MAC
h -t 0.763056863 -s 1 -d -1 -p ack -e 40 -c 2 -a 0 -i 28 -k MAC
r -t 0.763217462 -s 0 -d -1 -p ack -e 40 -c 2 -a 0 -i 28 -k MAC
r -t 0.763242462 -s 0 -d -1 -p ack -e 40 -c 2 -a 0 -i 28 -k AGT
+ -t 0.763242462 -s 0 -d -1 -p tcp -e 1040 -c 2 -a 0 -i 29 -k AGT 
- -t 0.763242462 -s 0 -d -1 -p tcp -e 1040 -c 2 -a 0 -i 29 -k AGT
h -t 0.763242462 -s 0 -d -1 -p tcp -e 1040 -c 2 -a 0 -i 29 -k AGT
+ -t 0.763242462 -s 0 -d -1 -p tcp -e 1040 -c 2 -a 0 -i 29 -k RTR 
- -t 0.763242462 -s 0 -d -1 -p tcp -e 1040 -c 2 -a 0 -i 29 -k RTR
h -t 0.763242462 -s 0 -d -1 -p tcp -e 1040 -c 2 -a 0 -i 29 -k RTR
+ -t 0.763856265 -s 0 -d -1 -p tcp -e 1040 -c 2 -a 0 -i 25 -k MAC 
- -t 0.763856265 -s 0 -d -1 -p tcp -e 1040 -c 2 -a 0 -i 25 -k MAC
h -t 0.763856265 -s 0 -d -1 -p tcp -e 1040 -c 2 -a 0 -i 25 -k MAC
r -t 0.768016863 -s 1 -d -1 -p tcp -e 1040 -c 2 -a 0 -i 25 -k MAC
r -t 0.768041863 -s 1 -d -1 -p tcp -e 1040 -c 2 -a 0 -i 25 -k AGT
+ -t 0.768041863 -s 1 -d -1 -p ack -e 40 -c 2 -a 0 -i 30 -k AGT 
- -t 0.768041863 -s 1 -d -1 -p ack -e 40 -c 2 -a 0 -i 30 -k AGT
h -t 0.768041863 -s 1 -d -1 -p ack -e 40 -c 2 -a 0 -i 30 -k AGT
+ -t 0.768041863 -s 1 -d -1 -p ack -e 40 -c 2 -a 0 -i 30 -k RTR 
- -t 0.768041863 -s 1 -d -1 -p ack -e 40 -c 2 -a 0 -i 30 -k RTR
h -t 0.768041863 -s 1 -d -1 -p ack -e 40 -c 2 -a 0 -i 30 -k RTR
+ -t 0.768166265 -s 0 -d -1 -p tcp -e 1040 -c 2 -a 0 -i 27 -k MAC 
- -t 0.768166265 -s 0 -d -1 -p tcp -e 1040 -c 2 -a 0 -i 27 -k MAC
h -t 0.768166265 -s 0 -d -1 -p tcp -e 1040 -c 2 -a 0 -i 27 -k MAC
+ -t 0.769016863 -s 1 -d -1 -p ack -e 40 -c 2 -a 0 -i 30 -k MAC 
- -t 0.769016863 -s 1 -d -1 -p ack -e 40 -c 2 -a 0 -i 30 -k MAC
h -t 0.769016863 -s 1 -d -1 -p ack -e 40 -c 2 -a 0 -i 30 -k MAC
r -t 0.772326863 -s 1 -d -1 -p tcp -e 1040 -c 2 -a 0 -i 27 -k MAC
r -t 0.772351863 -s 1 -d -1 -p tcp -e 1040 -c 2 -a 0 -i 27 -k AGT
+ -t 0.772351863 -s 1 -d -1 -p ack -e 40 -c 2 -a 0 -i 31 -k AGT 
- -t 0.772351863 -s 1 -d -1 -p ack -e 40 -c 2 -a 0 -i 31 -k AGT
h -t 0.772351863 -s 1 -d -1 -p ack -e 40 -c 2 -a 0 -i 31 -k AGT
+ -t 0.772351863 -s 1 -d -1 -p ack -e 40 -c 2 -a 0 -i 31 -k RTR 
- -t 0.772351863 -s 1 -d -1 -p ack -e 40 -c 2 -a 0 -i 31 -k RTR
h -t 0.772351863 -s 1 -d -1 -p ack -e 40 -c 2 -a 0 -i 31 -k RTR
+ -t 0.772576265 -s 0 -d -1 -p tcp -e 1040 -c 2 -a 0 -i 29 -k MAC 
- -t 0.772576265 -s 0 -d -1 -p tcp -e 1040 -c 2 -a 0 -i 29 -k MAC
h -t 0.772576265 -s 0 -d -1 -p tcp -e 1040 -c 2 -a 0 -i 29 -k MAC
+ -t 0.774226863 -s 1 -d -1 -p ack -e 40 -c 2 -a 0 -i 31 -k MAC 
- -t 0.774226863 -s 1 -d -1 -p ack -e 40 -c 2 -a 0 -i 31 -k MAC
h -t 0.774226863 -s 1 -d -1 -p ack -e 40 -c 2 -a 0 -i 31 -k MAC
r -t 0.776736862 -s 1 -d -1 -p tcp -e 1040 -c 2 -a 0 -i 29 -k MAC
r -t 0.776761862 -s 1 -d -1 -p tcp -e 1040 -c 2 -a 0 -i 29 -k AGT
+ -t 0.776761862 -s 1 -d -1 -p ack -e 40 -c 2 -a 0 -i 32 -k AGT 
- -t 0.776761862 -s 1 -d -1 -p ack -e 40 -c 2 -a 0 -i 32 -k AGT
h -t 0.776761862 -s 1 -d -1 -p ack -e 40 -c 2 -a 0 -i 32 -k AGT
+ -t 0.776761862 -s 1 -d -1 -p ack -e 40 -c 2 -a 0 -i 32 -k RTR 
- -t 0.776761862 -s 1 -d -1 -p ack -e 40 -c 2 -a 0 -i 32 -k RTR
h -t 0.776761862 -s 1 -d -1 -p ack -e 40 -c 2 -a 0 -i 32 -k RTR
+ -t 0.778136862 -s 1 -d -1 -p ack -e 40 -c 2 -a 0 -i 32 -k MAC 
- -t 0.778136862 -s 1 -d -1 -p ack -e 40 -c 2 -a 0 -i 32 -k MAC
h -t 0.778136862 -s 1 -d -1 -p ack -e 40 -c 2 -a 0 -i 32 -k MAC
r -t 0.778297460 -s 0 -d -1 -p ack -e 40 -c 2 -a 0 -i 32 -k MAC
r -t 0.778322460 -s 0 -d -1 -p ack -e 40 -c 2 -a 0 -i 32 -k AGT
+ -t 0.778322460 -s 0 -d -1 -p tcp -e 1040 -c 2 -a 0 -i 33 -k AGT 
- -t 0.778322460 -s 0 -d -1 -p tcp -e 1040 -c 2 -a 0 -i 33 -k AGT
h -t 0.778322460 -s 0 -d -1 -p tcp -e 1040 -c 2 -a 0 -i 33 -k AGT
+ -t 0.778322460 -s 0 -d -1 -p tcp -e 1040 -c 2 -a 0 -i 33 -k RTR 
- -t 0.778322460 -s 0 -d -1 -p tcp -e 1040 -c 2 -a 0 -i 33 -k RTR
h -t 0.778322460 -s 0 -d -1 -p tcp -e 1040 -c 2 -a 0 -i 33 -k RTR
+ -t 0.778322460 -s 0 -d -1 -p tcp -e 1040 -c 2 -a 0 -i 34 -k AGT 
- -t 0.778322460 -s 0 -d -1 -p tcp -e 1040 -c 2 -a 0 -i 34 -k AGT
h -t 0.778322460 -s 0 -d -1 -p tcp -e 1040 -c 2 -a 0 -i 34 -k AGT
+ -t 0.778322460 -s 0 -d -1 -p tcp -e 1040 -c 2 -a 0 -i 34 -k RTR 
- -t 0.778322460 -s 0 -d -1 -p tcp -e 1040 -c 2 -a 0 -i 34 -k RTR
h -t 0.778322460 -s 0 -d -1 -p tcp -e 1040 -c 2 -a 0 -i 34 -k RTR
+ -t 0.778322460 -s 0 -d -1 -p tcp -e 1040 -c 2 -a 0 -i 35 -k AGT 
- -t 0.778322460 -s 0 -d -1 -p tcp -e 1040 -c 2 -a 0 -i 35 -k AGT
h -t 0.778322460 -s 0 -d -1 -p tcp -e 1040 -c 2 -a 0 -i 35 -k AGT
+ -t 0.778322460 -s 0 -d -1 -p tcp -e 1040 -c 2 -a 0 -i 35 -k RTR 
- -t 0.778322460 -s 0 -d -1 -p tcp -e 1040 -c 2 -a 0 -i 35 -k RTR
h -t 0.778322460 -s 0 -d -1 -p tcp -e 1040 -c 2 -a 0 -i 35 -k RTR
+ -t 0.778322460 -s 0 -d -1 -p tcp -e 1040 -c 2 -a 0 -i 36 -k AGT 
- -t 0.778322460 -s 0 -d -1 -p tcp -e 1040 -c 2 -a 0 -i 36 -k AGT
h -t 0.778322460 -s 0 -d -1 -p tcp -e 1040 -c 2 -a 0 -i 36 -k AGT
+ -t 0.778322460 -s 0 -d -1 -p tcp -e 1040 -c 2 -a 0 -i 36 -k RTR 
- -t 0.778322460 -s 0 -d -1 -p tcp -e 1040 -c 2 -a 0 -i 36 -k RTR
h -t 0.778322460 -s 0 -d -1 -p tcp -e 1040 -c 2 -a 0 -i 36 -k RTR
+ -t 0.778947460 -s 0 -d -1 -p tcp -e 1040 -c 2 -a 0 -i 33 -k MAC 
- -t 0.778947460 -s 0 -d -1 -p tcp -e 1040 -c 2 -a 0 -i 33 -k MAC
h -t 0.778947460 -s 0 -d -1 -p tcp -e 1040 -c 2 -a 0 -i 33 -k MAC
r -t 0.783108058 -s 1 -d -1 -p tcp -e 1040 -c 2 -a 0 -i 33 -k MAC
r -t 0.783133058 -s 1 -d -1 -p tcp -e 1040 -c 2 -a 0 -i 33 -k AGT
+ -t 0.783133058 -s 1 -d -1 -p ack -e 40 -c 2 -a 0 -i 37 -k AGT 
- -t 0.783133058 -s 1 -d -1 -p ack -e 40 -c 2 -a 0 -i 37 -k AGT
h -t 0.783133058 -s 1 -d -1 -p ack -e 40 -c 2 -a 0 -i 37 -k AGT
+ -t 0.783133058 -s 1 -d -1 -p ack -e 40 -c 2 -a 0 -i 37 -k RTR 
- -t 0.783133058 -s 1 -d -1 -p ack -e 40 -c 2 -a 0 -i 37 -k RTR
h -t 0.783133058 -s 1 -d -1 -p ack -e 40 -c 2 -a 0 -i 37 -k RTR
+ -t 0.783957460 -s 0 -d -1 -p tcp -e 1040 -c 2 -a 0 -i 34 -k MAC 
- -t 0.783957460 -s 0 -d -1 -p tcp -e 1040 -c 2 -a 0 -i 34 -k MAC
h -t 0.783957460 -s 0 -d -1 -p tcp -e 1040 -c 2 -a 0 -i 34 -k MAC
+ -t 0.784758058 -s 1 -d -1 -p ack -e 40 -c 2 -a 0 -i 37 -k MAC 
- -t 0.784758058 -s 1 -d -1 -p ack -e 40 -c 2 -a 0 -i 37 -k MAC
h -t 0.784758058 -s 1 -d -1 -p ack -e 40 -c 2 -a 0 -i 37 -k MAC
r -t 0.788118057 -s 1 -d -1 -p tcp -e 1040 -c 2 -a 0 -i 34 -k MAC
r -t 0.788143057 -s 1 -d -1 -p tcp -e 1040 -c 2 -a 0 -i 34 -k AGT
+ -t 0.788143057 -s 1 -d -1 -p ack -e 40 -c 2 -a 0 -i 38 -k AGT 
- -t 0.788143057 -s 1 -d -1 -p ack -e 40 -c 2 -a 0 -i 38 -k AGT
h -t 0.788143057 -s 1 -d -1 -p ack -e 40 -c 2 -a 0 -i 38 -k AGT
+ -t 0.788143057 -s 1 -d -1 -p ack -e 40 -c 2 -a 0 -i 38 -k RTR 
- -t 0.788143057 -s 1 -d -1 -p ack -e 40 -c 2 -a 0 -i 38 -k RTR
h -t 0.788143057 -s 1 -d -1 -p ack -e 40 -c 2 -a 0 -i 38 -k RTR
+ -t 0.789267460 -s 0 -d -1 -p tcp -e 1040 -c 2 -a 0 -i 35 -k MAC 
- -t 0.789267460 -s 0 -d -1 -p tcp -e 1040 -c 2 -a 0 -i 35 -k MAC
h -t 0.789267460 -s 0 -d -1 -p tcp -e 1040 -c 2 -a 0 -i 35 -k MAC
+ -t 0.789818057 -s 1 -d -1 -p ack -e 40 -c 2 -a 0 -i 38 -k MAC 
- -t 0.789818057 -s 1 -d -1 -p ack -e 40 -c 2 -a 0 -i 38 -k MAC
h -t 0.789818057 -s 1 -d -1 -p ack -e 40 -c 2 -a 0 -i 38 -k MAC
r -t 0.793428057 -s 1 -d -1 -p tcp -e 1040 -c 2 -a 0 -i 35 -k MAC
r -t 0.793453057 -s 1 -d -1 -p tcp -e 1040 -c 2 -a 0 -i 35 -k AGT
+ -t 0.793453057 -s 1 -d -1 -p ack -e 40 -c 2 -a 0 -i 39 -k AGT 
- -t 0.793453057 -s 1 -d -1 -p ack -e 40 -c 2 -a 0 -i 39 -k AGT
h -t 0.793453057 -s 1 -d -1 -p ack -e 40 -c 2 -a 0 -i 39 -k AGT
+ -t 0.793453057 -s 1 -d -1 -p ack -e 40 -c 2 -a 0 -i 39 -k RTR 
- -t 0.793453057 -s 1 -d -1 -p ack -e 40 -c 2 -a 0 -i 39 -k RTR
h -t 0.793453057 -s 1 -d -1 -p ack -e 40 -c 2 -a 0 -i 39 -k RTR
+ -t 0.794378057 -s 1 -d -1 -p ack -e 40 -c 2 -a 0 -i 39 -k MAC 
- -t 0.794378057 -s 1 -d -1 -p ack -e 40 -c 2 -a 0 -i 39 -k MAC
h -t 0.794378057 -s 1 -d -1 -p ack -e 40 -c 2 -a 0 -i 39 -k MAC
r -t 0.794538654 -s 0 -d -1 -p ack -e 40 -c 2 -a 0 -i 39 -k MAC
r -t 0.794563654 -s 0 -d -1 -p ack -e 40 -c 2 -a 0 -i 39 -k AGT
+ -t 0.794563654 -s 0 -d -1 -p tcp -e 1040 -c 2 -a 0 -i 40 -k AGT 
- -t 0.794563654 -s 0 -d -1 -p tcp -e 1040 -c 2 -a 0 -i 40 -k AGT
h -t 0.794563654 -s 0 -d -1 -p tcp -e 1040 -c 2 -a 0 -i 40 -k AGT
+ -t 0.794563654 -s 0 -d -1 -p tcp -e 1040 -c 2 -a 0 -i 40 -k RTR 
- -t 0.794563654 -s 0 -d -1 -p tcp -e 1040 -c 2 -a 0 -i 40 -k RTR
h -t 0.794563654 -s 0 -d -1 -p tcp -e 1040 -c 2 -a 0 -i 40 -k RTR
+ -t 0.794563654 -s 0 -d -1 -p tcp -e 1040 -c 2 -a 0 -i 41 -k AGT 
- -t 0.794563654 -s 0 -d -1 -p tcp -e 1040 -c 2 -a 0 -i 41 -k AGT
h -t 0.794563654 -s 0 -d -1 -p tcp -e 1040 -c 2 -a 0 -i 41 -k AGT
+ -t 0.794563654 -s 0 -d -1 -p tcp -e 1040 -c 2 -a 0 -i 41 -k RTR 
- -t 0.794563654 -s 0 -d -1 -p tcp -e 1040 -c 2 -a 0 -i 41 -k RTR
h -t 0.794563654 -s 0 -d -1 -p tcp -e 1040 -c 2 -a 0 -i 41 -k RTR
+ -t 0.794563654 -s 0 -d -1 -p tcp -e 1040 -c 2 -a 0 -i 42 -k AGT 
- -t 0.794563654 -s 0 -d -1 -p tcp -e 1040 -c 2 -a 0 -i 42 -k AGT
h -t 0.794563654 -s 0 -d -1 -p tcp -e 1040 -c 2 -a 0 -i 42 -k AGT
+ -t 0.794563654 -s 0 -d -1 -p tcp -e 1040 -c 2 -a 0 -i 42 -k RTR 
- -t 0.794563654 -s 0 -d -1 -p tcp -e 1040 -c 2 -a 0 -i 42 -k RTR
h -t 0.794563654 -s 0 -d -1 -p tcp -e 1040 -c 2 -a 0 -i 42 -k RTR
+ -t 0.794977460 -s 0 -d -1 -p tcp -e 1040 -c 2 -a 0 -i 36 -k MAC 
- -t 0.794977460 -s 0 -d -1 -p tcp -e 1040 -c 2 -a 0 -i 36 -k MAC
h -t 0.794977460 -s 0 -d -1 -p tcp -e 1040 -c 2 -a 0 -i 36 -k MAC
r -t 0.799138057 -s 1 -d -1 -p tcp -e 1040 -c 2 -a 0 -i 36 -k MAC
r -t 0.799163057 -s 1 -d -1 -p tcp -e 1040 -c 2 -a 0 -i 36 -k AGT
+ -t 0.799163057 -s 1 -d -1 -p ack -e 40 -c 2 -a 0 -i 43 -k AGT 
- -t 0.799163057 -s 1 -d -1 -p ack -e 40 -c 2 -a 0 -i 43 -k AGT
h -t 0.799163057 -s 1 -d -1 -p ack -e 40 -c 2 -a 0 -i 43 -k AGT
+ -t 0.799163057 -s 1 -d -1 -p ack -e 40 -c 2 -a 0 -i 43 -k RTR 
- -t 0.799163057 -s 1 -d -1 -p ack -e 40 -c 2 -a 0 -i 43 -k RTR
h -t 0.799163057 -s 1 -d -1 -p ack -e 40 -c 2 -a 0 -i 43 -k RTR
+ -t 0.799487460 -s 0 -d -1 -p tcp -e 1040 -c 2 -a 0 -i 40 -k MAC 