M 0.00000 0 (15.00, 15.00, 0.00), (50.00, 50.00), 5.00
M 0.00000 1 (150.00, 150.00, 0.00), (60.00, 40.00), 10.00
s 0.500000000 _0_ AGT  --- 0 tcp 40 [0 0 0 0] ------- [0:0 1:0 32 0] [0 0] 0 0
r 0.500000000 _0_ RTR  --- 0 tcp 40 [0 0 0 0] ------- [0:0 1:0 32 0] [0 0] 0 0
s 0.500000000 _0_ RTR  --- 0 tcp 40 [0 0 0 0] ------- [0:0 1:0 32 0] [0 0] 0 0
s 0.501355000 _0_ MAC  --- 0 ARP 28 [0 0 ffff0608 0] ------- [REQUEST 0/0 0/1]
r 0.501467611 _1_ MAC  --- 0 ARP 28 [0 0 ffff0608 0] ------- [REQUEST 0/0 0/1]
s 0.503272611 _1_ MAC  --- 0 ARP 28 [0 1000000 608 0] ------- [REPLY 1/1 0/0]
r 0.503385223 _0_ MAC  --- 0 ARP 28 [0 1000000 608 0] ------- [REPLY 1/1 0/0]
s 0.505140223 _0_ MAC  --- 0 tcp 40 [0 0 8 0] ------- [0:0 1:0 32 0] [0 0] 0 0
r 0.505300834 _1_ MAC  --- 0 tcp 40 [0 0 8 0] ------- [0:0 1:0 32 0] [0 0] 0 0
r 0.505325834 _1_ AGT  --- 0 tcp 40 [0 0 8 0] ------- [0:0 1:0 32 0] [0 0] 0 0
s 0.505325834 _1_ AGT  --- 1 ack 40 [0 0 0 0] ------- [1:0 0:0 32 0] [0 0] 0 0
r 0.505325834 _1_ RTR  --- 1 ack 40 [0 0 0 0] ------- [1:0 0:0 32 0] [0 0] 0 0
s 0.505325834 _1_ RTR  --- 1 ack 40 [0 0 0 0] ------- [1:0 0:0 32 0] [0 0] 0 0
s 0.506500834 _1_ MAC  --- 1 ack 40 [0 1000000 8 0] ------- [1:0 0:0 32 0] [0 0] 0 0
r 0.506661445 _0_ MAC  --- 1 ack 40 [0 1000000 8 0] ------- [1:0 0:0 32 0] [0 0] 0 0
r 0.506686445 _0_ AGT  --- 1 ack 40 [0 1000000 8 0] ------- [1:0 0:0 32 0] [0 0] 0 0
s 0.506686445 _0_ AGT  --- 2 tcp 1040 [0 0 0 0] ------- [0:0 1:0 32 0] [1 0] 0 0
r 0.506686445 _0_ RTR  --- 2 tcp 1040 [0 0 0 0] ------- [0:0 1:0 32 0] [1 0] 0 0
s 0.506686445 _0_ RTR  --- 2 tcp 1040 [0 0 0 0] ------- [0:0 1:0 32 0] [1 0] 0 0
s 0.506686445 _0_ AGT  --- 3 tcp 1040 [0 0 0 0] ------- [0:0 1:0 32 0] [2 0] 0 0
r 0.506686445 _0_ RTR  --- 3 tcp 1040 [0 0 0 0] ------- [0:0 1:0 32 0] [2 0] 0 0
s 0.506686445 _0_ RTR  --- 3 tcp 1040 [0 0 0 0] ------- [0:0 1:0 32 0] [2 0] 0 0
s 0.508111445 _0_ MAC  --- 2 tcp 1040 [0 0 8 0] ------- [0:0 1:0 32 0] [1 0] 0 0
r 0.512272056 _1_ MAC  --- 2 tcp 1040 [0 0 8 0] ------- [0:0 1:0 32 0] [1 0] 0 0
r 0.512297056 _1_ AGT  --- 2 tcp 1040 [0 0 8 0] ------- [0:0 1:0 32 0] [1 0] 0 0
s 0.512297056 _1_ AGT  --- 4 ack 40 [0 0 0 0] ------- [1:0 0:0 32 0] [1 0] 0 0
r 0.512297056 _1_ RTR  --- 4 ack 40 [0 0 0 0] ------- [1:0 0:0 32 0] [1 0] 0 0
s 0.512297056 _1_ RTR  --- 4 ack 40 [0 0 0 0] ------- [1:0 0:0 32 0] [1 0] 0 0
s 0.512621445 _0_ MAC  --- 3 tcp 1040 [0 0 8 0] ------- [0:0 1:0 32 0] [2 0] 0 0
s 0.512772056 _1_ MAC  --- 4 ack 40 [0 1000000 8 0] ------- [1:0 0:0 32 0] [1 0] 0 0
r 0.516782056 _1_ MAC  --- 3 tcp 1040 [0 0 8 0] ------- [0:0 1:0 32 0] [2 0] 0 0
r 0.516807056 _1_ AGT  --- 3 tcp 1040 [0 0 8 0] ------- [0:0 1:0 32 0] [2 0] 0 0
s 0.516807056 _1_ AGT  --- 5 ack 40 [0 0 0 0] ------- [1:0 0:0 32 0] [2 0] 0 0
r 0.516807056 _1_ RTR  --- 5 ack 40 [0 0 0 0] ------- [1:0 0:0 32 0] [2 0] 0 0
s 0.516807056 _1_ RTR  --- 5 ack 40 [0 0 0 0] ------- [1:0 0:0 32 0] [2 0] 0 0
s 0.518082056 _1_ MAC  --- 5 ack 40 [0 1000000 8 0] ------- [1:0 0:0 32 0] [2 0] 0 0
r 0.518242667 _0_ MAC  --- 5 ack 40 [0 1000000 8 0] ------- [1:0 0:0 32 0] [2 0] 0 0
r 0.518267667 _0_ AGT  --- 5 ack 40 [0 1000000 8 0] ------- [1:0 0:0 32 0] [2 0] 0 0
s 0.518267667 _0_ AGT  --- 6 tcp 1040 [0 0 0 0] ------- [0:0 1:0 32 0] [3 0] 0 0
r 0.518267667 _0_ RTR  --- 6 tcp 1040 [0 0 0 0] ------- [0:0 1:0 32 0] [3 0] 0 0
s 0.518267667 _0_ RTR  --- 6 tcp 1040 [0 0 0 0] ------- [0:0 1:0 32 0] [3 0] 0 0
s 0.518267667 _0_ AGT  --- 7 tcp 1040 [0 0 0 0] ------- [0:0 1:0 32 0] [4 0] 0 0
r 0.518267667 _0_ RTR  --- 7 tcp 1040 [0 0 0 0] ------- [0:0 1:0 32 0] [4 0] 0 0
s 0.518267667 _0_ RTR  --- 7 tcp 1040 [0 0 0 0] ------- [0:0 1:0 32 0] [4 0] 0 0
s 0.518267667 _0_ AGT  --- 8 tcp 1040 [0 0 0 0] ------- [0:0 1:0 32 0] [5 0] 0 0
r 0.518267667 _0_ RTR  --- 8 tcp 1040 [0 0 0 0] ------- [0:0 1:0 32 0] [5 0] 0 0
s 0.518267667 _0_ RTR  --- 8 tcp 1040 [0 0 0 0] ------- [0:0 1:0 32 0] [5 0] 0 0
s 0.518692667 _0_ MAC  --- 6 tcp 1040 [0 0 8 0] ------- [0:0 1:0 32 0] [3 0] 0 0
r 0.522853277 _1_ MAC  --- 6 tcp 1040 [0 0 8 0] ------- [0:0 1:0 32 0] [3 0] 0 0
r 0.522878277 _1_ AGT  --- 6 tcp 1040 [0 0 8 0] ------- [0:0 1:0 32 0] [3 0] 0 0
s 0.522878277 _1_ AGT  --- 9 ack 40 [0 0 0 0] ------- [1:0 0:0 32 0] [3 0] 0 0
r 0.522878277 _1_ RTR  --- 9 ack 40 [0 0 0 0] ------- [1:0 0:0 32 0] [3 0] 0 0
s 0.522878277 _1_ RTR  --- 9 ack 40 [0 0 0 0] ------- [1:0 0:0 32 0] [3 0] 0 0
s 0.523952667 _0_ MAC  --- 7 tcp 1040 [0 0 8 0] ------- [0:0 1:0 32 0] [4 0] 0 0
s 0.524853277 _1_ MAC  --- 9 ack 40 [0 1000000 8 0] ------- [1:0 0:0 32 0] [3 0] 0 0
r 0.528113277 _1_ MAC  --- 7 tcp 1040 [0 0 8 0] ------- [0:0 1:0 32 0] [4 0] 0 0
r 0.528138277 _1_ AGT  --- 7 tcp 1040 [0 0 8 0] ------- [0:0 1:0 32 0] [4 0] 0 0
s 0.528138277 _1_ AGT  --- 10 ack 40 [0 0 0 0] ------- [1:0 0:0 32 0] [4 0] 0 0
r 0.528138277 _1_ RTR  --- 10 ack 40 [0 0 0 0] ------- [1:0 0:0 32 0] [4 0] 0 0
s 0.528138277 _1_ RTR  --- 10 ack 40 [0 0 0 0] ------- [1:0 0:0 32 0] [4 0] 0 0
s 0.528763277 _1_ MAC  --- 10 ack 40 [0 1000000 8 0] ------- [1:0 0:0 32 0] [4 0] 0 0
s 0.528912667 _0_ MAC  --- 8 tcp 1040 [0 0 8 0] ------- [0:0 1:0 32 0] [5 0] 0 0
D 0.533073277 _1_ MAC  ERR 8 tcp 1040 [0 0 8 0] ------- [0:0 1:0 32 0] [5 0] 0 0
s 0.718267667 _0_ AGT  --- 11 tcp 1040 [0 0 0 0] ------- [0:0 1:0 32 0] [3 0] 0 0
r 0.718267667 _0_ RTR  --- 11 tcp 1040 [0 0 0 0] ------- [0:0 1:0 32 0] [3 0] 0 0
s 0.718267667 _0_ RTR  --- 11 tcp 1040 [0 0 0 0] ------- [0:0 1:0 32 0] [3 0] 0 0
s 0.719842667 _0_ MAC  --- 11 tcp 1040 [0 0 8 0] ------- [0:0 1:0 32 0] [3 0] 0 0
r 0.724003267 _1_ MAC  --- 11 tcp 1040 [0 0 8 0] ------- [0:0 1:0 32 0] [3 0] 0 0
r 0.724028267 _1_ AGT  --- 11 tcp 1040 [0 0 8 0] ------- [0:0 1:0 32 0] [3 0] 0 0
s 0.724028267 _1_ AGT  --- 12 ack 40 [0 0 0 0] ------- [1:0 0:0 32 0] [4 0] 0 0
r 0.724028267 _1_ RTR  --- 12 ack 40 [0 0 0 0] ------- [1:0 0:0 32 0] [4 0] 0 0
s 0.724028267 _1_ RTR  --- 12 ack 40 [0 0 0 0] ------- [1:0 0:0 32 0] [4 0] 0 0
s 0.725653267 _1_ MAC  --- 12 ack 40 [0 1000000 8 0] ------- [1:0 0:0 32 0] [4 0] 0 0
r 0.725813867 _0_ MAC  --- 12 ack 40 [0 1000000 8 0] ------- [1:0 0:0 32 0] [4 0] 0 0
r 0.725838867 _0_ AGT  --- 12 ack 40 [0 1000000 8 0] ------- [1:0 0:0 32 0] [4 0] 0 0
s 0.725838867 _0_ AGT  --- 13 tcp 1040 [0 0 0 0] ------- [0:0 1:0 32 0] [5 0] 0 0
r 0.725838867 _0_ RTR  --- 13 tcp 1040 [0 0 0 0] ------- [0:0 1:0 32 0] [5 0] 0 0
s 0.725838867 _0_ RTR  --- 13 tcp 1040 [0 0 0 0] ------- [0:0 1:0 32 0] [5 0] 0 0
s 0.725838867 _0_ AGT  --- 14 tcp 1040 [0 0 0 0] ------- [0:0 1:0 32 0] [6 0] 0 0
r 0.725838867 _0_ RTR  --- 14 tcp 1040 [0 0 0 0] ------- [0:0 1:0 32 0] [6 0] 0 0
s 0.725838867 _0_ RTR  --- 14 tcp 1040 [0 0 0 0] ------- [0:0 1:0 32 0] [6 0] 0 0
s 0.726413867 _0_ MAC  --- 13 tcp 1040 [0 0 8 0] ------- [0:0 1:0 32 0] [5 0] 0 0
r 0.730574468 _1_ MAC  --- 13 tcp 1040 [0 0 8 0] ------- [0:0 1:0 32 0] [5 0] 0 0
r 0.730599468 _1_ AGT  --- 13 tcp 1040 [0 0 8 0] ------- [0:0 1:0 32 0] [5 0] 0 0
s 0.730599468 _1_ AGT  --- 15 ack 40 [0 0 0 0] ------- [1:0 0:0 32 0] [5 0] 0 0
r 0.730599468 _1_ RTR  --- 15 ack 40 [0 0 0 0] ------- [1:0 0:0 32 0] [5 0] 0 0
s 0.730599468 _1_ RTR  --- 15 ack 40 [0 0 0 0] ------- [1:0 0:0 32 0] [5 0] 0 0
s 0.731824468 _1_ MAC  --- 15 ack 40 [0 1000000 8 0] ------- [1:0 0:0 32 0] [5 0] 0 0
r 0.731985067 _0_ MAC  --- 15 ack 40 [0 1000000 8 0] ------- [1:0 0:0 32 0] [5 0] 0 0
r 0.732010067 _0_ AGT  --- 15 ack 40 [0 1000000 8 0] ------- [1:0 0:0 32 0] [5 0] 0 0
s 0.732010067 _0_ AGT  --- 16 tcp 1040 [0 0 0 0] ------- [0:0 1:0 32 0] [7 0] 0 0
r 0.732010067 _0_ RTR  --- 16 tcp 1040 [0 0 0 0] ------- [0:0 1:0 32 0] [7 0] 0 0
s 0.732010067 _0_ RTR  --- 16 tcp 1040 [0 0 0 0] ------- [0:0 1:0 32 0] [7 0] 0 0
s 0.732223867 _0_ MAC  --- 14 tcp 1040 [0 0 8 0] ------- [0:0 1:0 32 0] [6 0] 0 0
r 0.736384467 _1_ MAC  --- 14 tcp 1040 [0 0 8 0] ------- [0:0 1:0 32 0] [6 0] 0 0
r 0.736409467 _1_ AGT  --- 14 tcp 1040 [0 0 8 0] ------- [0:0 1:0 32 0] [6 0] 0 0
s 0.736409467 _1_ AGT  --- 17 ack 40 [0 0 0 0] ------- [1:0 0:0 32 0] [6 0] 0 0
r 0.736409467 _1_ RTR  --- 17 ack 40 [0 0 0 0] ------- [1:0 0:0 32 0] [6 0] 0 0
s 0.736409467 _1_ RTR  --- 17 ack 40 [0 0 0 0] ------- [1:0 0:0 32 0] [6 0] 0 0
s 0.736883867 _0_ MAC  --- 16 tcp 1040 [0 0 8 0] ------- [0:0 1:0 32 0] [7 0] 0 0
s 0.737534467 _1_ MAC  --- 17 ack 40 [0 1000000 8 0] ------- [1:0 0:0 32 0] [6 0] 0 0
r 0.741044467 _1_ MAC  --- 16 tcp 1040 [0 0 8 0] ------- [0:0 1:0 32 0] [7 0] 0 0
r 0.741069467 _1_ AGT  --- 16 tcp 1040 [0 0 8 0] ------- [0:0 1:0 32 0] [7 0] 0 0
s 0.741069467 _1_ AGT  --- 18 ack 40 [0 0 0 0] ------- [1:0 0:0 32 0] [7 0] 0 0
r 0.741069467 _1_ RTR  --- 18 ack 40 [0 0 0 0] ------- [1:0 0:0 32 0] [7 0] 0 0
s 0.741069467 _1_ RTR  --- 18 ack 40 [0 0 0 0] ------- [1:0 0:0 32 0] [7 0] 0 0
s 0.741544467 _1_ MAC  --- 18 ack 40 [0 1000000 8 0] ------- [1:0 0:0 32 0] [7 0] 0 0
r 0.741705066 _0_ MAC  --- 18 ack 40 [0 1000000 8 0] ------- [1:0 0:0 32 0] [7 0] 0 0
r 0.741730066 _0_ AGT  --- 18 ack 40 [0 1000000 8 0] ------- [1:0 0:0 32 0] [7 0] 0 0
s 0.741730066 _0_ AGT  --- 19 tcp 1040 [0 0 0 0] ------- [0:0 1:0 32 0] [8 0] 0 0
r 0.741730066 _0_ RTR  --- 19 tcp 1040 [0 0 0 0] ------- [0:0 1:0 32 0] [8 0] 0 0
s 0.741730066 _0_ RTR  --- 19 tcp 1040 [0 0 0 0] ------- [0:0 1:0 32 0] [8 0] 0 0
s 0.741730066 _0_ AGT  --- 20 tcp 1040 [0 0 0 0] ------- [0:0 1:0 32 0] [9 0] 0 0
r 0.741730066 _0_ RTR  --- 20 tcp 1040 [0 0 0 0] ------- [0:0 1:0 32 0] [9 0] 0 0
s 0.741730066 _0_ RTR  --- 20 tcp 1040 [0 0 0 0] ------- [0:0 1:0 32 0] [9 0] 0 0
s 0.742205066 _0_ MAC  --- 19 tcp 1040 [0 0 8 0] ------- [0:0 1:0 32 0] [8 0] 0 0
r 0.746365666 _1_ MAC  --- 19 tcp 1040 [0 0 8 0] ------- [0:0 1:0 32 0] [8 0] 0 0
r 0.746390666 _1_ AGT  --- 19 tcp 1040 [0 0 8 0] ------- [0:0 1:0 32 0] [8 0] 0 0
s 0.746390666 _1_ AGT  --- 21 ack 40 [0 0 0 0] ------- [1:0 0:0 32 0] [8 0] 0 0
r 0.746390666 _1_ RTR  --- 21 ack 40 [0 0 0 0] ------- [1:0 0:0 32 0] [8 0] 0 0
s 0.746390666 _1_ RTR  --- 21 ack 40 [0 0 0 0] ------- [1:0 0:0 32 0] [8 0] 0 0
s 0.746665066 _0_ MAC  --- 20 tcp 1040 [0 0 8 0] ------- [0:0 1:0 32 0] [9 0] 0 0
s 0.746665666 _1_ MAC  --- 21 ack 40 [0 1000000 8 0] ------- [1:0 0:0 32 0] [8 0] 0 0
r 0.750825666 _1_ MAC  --- 20 tcp 1040 [0 0 8 0] ------- [0:0 1:0 32 0] [9 0] 0 0
r 0.750850666 _1_ AGT  --- 20 tcp 1040 [0 0 8 0] ------- [0:0 1:0 32 0] [9 0] 0 0
s 0.750850666 _1_ AGT  --- 22 ack 40 [0 0 0 0] ------- [1:0 0:0 32 0] [9 0] 0 0
r 0.750850666 _1_ RTR  --- 22 ack 40 [0 0 0 0] ------- [1:0 0:0 32 0] [9 0] 0 0
s 0.750850666 _1_ RTR  --- 22 ack 40 [0 0 0 0] ------- [1:0 0:0 32 0] [9 0] 0 0
s 0.752425666 _1_ MAC  --- 22 ack 40 [0 1000000 8 0] ------- [1:0 0:0 32 0] [9 0] 0 0
r 0.752586265 _0_ MAC  --- 22 ack 40 [0 1000000 8 0] ------- [1:0 0:0 32 0] [9 0] 0 0
r 0.752611265 _0_ AGT  --- 22 ack 40 [0 1000000 8 0] ------- [1:0 0:0 32 0] [9 0] 0 0
s 0.752611265 _0_ AGT  --- 23 tcp 1040 [0 0 0 0] ------- [0:0 1:0 32 0] [10 0] 0 0
r 0.752611265 _0_ RTR  --- 23 tcp 1040 [0 0 0 0] ------- [0:0 1:0 32 0] [10 0] 0 0
s 0.752611265 _0_ RTR  --- 23 tcp 1040 [0 0 0 0] ------- [0:0 1:0 32 0] [10 0] 0 0
s 0.752611265 _0_ AGT  --- 24 tcp 1040 [0 0 0 0] ------- [0:0 1:0 32 0] [11 0] 0 0
r 0.752611265 _0_ RTR  --- 24 tcp 1040 [0 0 0 0] ------- [0:0 1:0 32 0] [11 0] 0 0
s 0.752611265 _0_ RTR  --- 24 tcp 1040 [0 0 0 0] ------- [0:0 1:0 32 0] [11 0] 0 0
s 0.752611265 _0_ AGT  --- 25 tcp 1040 [0 0 0 0] ------- [0:0 1:0 32 0] [12 0] 0 0
r 0.752611265 _0_ RTR  --- 25 tcp 1040 [0 0 0 0] ------- [0:0 1:0 32 0] [12 0] 0 0
s 0.752611265 _0_ RTR  --- 25 tcp 1040 [0 0 0 0] ------- [0:0 1:0 32 0] [12 0] 0 0
s 0.752686265 _0_ MAC  --- 23 tcp 1040 [0 0 8 0] ------- [0:0 1:0 32 0] [10 0] 0 0
r 0.756846863 _1_ MAC  --- 23 tcp 1040 [0 0 8 0] ------- [0:0 1:0 32 0] [10 0] 0 0
r 0.756871863 _1_ AGT  --- 23 tcp 1040 [0 0 8 0] ------- [0:0 1:0 32 0] [10 0] 0 0
s 0.756871863 _1_ AGT  --- 26 ack 40 [0 0 0 0] ------- [1:0 0:0 32 0] [10 0] 0 0
r 0.756871863 _1_ RTR  --- 26 ack 40 [0 0 0 0] ------- [1:0 0:0 32 0] [10 0] 0 0
s 0.756871863 _1_ RTR  --- 26 ack 40 [0 0 0 0] ------- [1:0 0:0 32 0] [10 0] 0 0
s 0.757396863 _1_ MAC  --- 26 ack 40 [0 1000000 8 0] ------- [1:0 0:0 32 0] [10 0] 0 0
r 0.757557462 _0_ MAC  --- 26 ack 40 [0 1000000 8 0] ------- [1:0 0:0 32 0] [10 0] 0 0
r 0.757582462 _0_ AGT  --- 26 ack 40 [0 1000000 8 0] ------- [1:0 0:0 32 0] [10 0] 0 0
s 0.757582462 _0_ AGT  --- 27 tcp 1040 [0 0 0 0] ------- [0:0 1:0 32 0] [13 0] 0 0
r 0.757582462 _0_ RTR  --- 27 tcp 1040 [0 0 0 0] ------- [0:0 1:0 32 0] [13 0] 0 0
s 0.757582462 _0_ RTR  --- 27 tcp 1040 [0 0 0 0] ------- [0:0 1:0 32 0] [13 0] 0 0
s 0.758296265 _0_ MAC  --- 24 tcp 1040 [0 0 8 0] ------- [0:0 1:0 32 0] [11 0] 0 0
r 0.762456863 _1_ MAC  --- 24 tcp 1040 [0 0 8 0] ------- [0:0 1:0 32 0] [11 0] 0 0
r 0.762481863 _1_ AGT  --- 24 tcp 1040 [0 0 8 0] ------- [0:0 1:0 32 0] [11 0] 0 0
s 0.762481863 _1_ AGT  --- 28 ack 40 [0 0 0 0] ------- [1:0 0:0 32 0] [11 0] 0 0
r 0.762481863 _1_ RTR  --- 28 ack 40 [0 0 0 0] ------- [1:0 0:0 32 0] [11 0] 0 0
s 0.762481863 _1_ RTR  --- 28 ack 40 [0 0 0 0] ------- [1:0 0:0 32 0] [11 0] 0 0
s 0.763056863 _1_ MAC  --- 28 ack 40 [0 1000000 8 0] ------- [1:0 0:0 32 0] [11 0] 0 0
r 0.763217462 _0_ MAC  --- 28 ack 40 [0 1000000 8 0] ------- [1:0 0:0 32 0] [11 0] 0 0
r 0.763242462 _0_ AGT  --- 28 ack 40 [0 1000000 8 0] ------- [1:0 0:0 32 0] [11 0] 0 0
s 0.763242462 _0_ AGT  --- 29 tcp 1040 [0 0 0 0] ------- [0:0 1:0 32 0] [14 0] 0 0
r 0.763242462 _0_ RTR  --- 29 tcp 1040 [0 0 0 0] ------- [0:0 1:0 32 0] [14 0] 0 0
s 0.763242462 _0_ RTR  --- 29 tcp 1040 [0 0 0 0] ------- [0:0 1:0 32 0] [14 0] 0 0
s 0.763856265 _0_ MAC  --- 25 tcp 1040 [0 0 8 0] ------- [0:0 1:0 32 0] [12 0] 0 0
r 0.768016863 _1_ MAC  --- 25 tcp 1040 [0 0 8 0] ------- [0:0 1:0 32 0] [12 0] 0 0
r 0.768041863 _1_ AGT  --- 25 tcp 1040 [0 0 8 0] ------- [0:0 1:0 32 0] [12 0] 0 0
s 0.768041863 _1_ AGT  --- 30 ack 40 [0 0 0 0] ------- [1:0 0:0 32 0] [12 0] 0 0
r 0.768041863 _1_ RTR  --- 30 ack 40 [0 0 0 0] ------- [1:0 0:0 32 0] [12 0] 0 0
s 0.768041863 _1_ RTR  --- 30 ack 40 [0 0 0 0] ------- [1:0 0:0 32 0] [12 0] 0 0
s 0.768166265 _0_ MAC  --- 27 tcp 1040 [0 0 8 0] ------- [0:0 1:0 32 0] [13 0] 0 0
s 0.769016863 _1_ MAC  --- 30 ack 40 [0 1000000 8 0] ------- [1:0 0:0 32 0] [12 0] 0 0
r 0.772326863 _1_ MAC  --- 27 tcp 1040 [0 0 8 0] ------- [0:0 1:0 32 0] [13 0] 0 0
r 0.772351863 _1_ AGT  --- 27 tcp 1040 [0 0 8 0] ------- [0:0 1:0 32 0] [13 0] 0 0
s 0.772351863 _1_ AGT  --- 31 ack 40 [0 0 0 0] ------- [1:0 0:0 32 0] [13 0] 0 0
r 0.772351863 _1_ RTR  --- 31 ack 40 [0 0 0 0] ------- [1:0 0:0 32 0] [13 0] 0 0
s 0.772351863 _1_ RTR  --- 31 ack 40 [0 0 0 0] ------- [1:0 0:0 32 0] [13 0] 0 0
s 0.772576265 _0_ MAC  --- 29 tcp 1040 [0 0 8 0] ------- [0:0 1:0 32 0] [14 0] 0 0
s 0.774226863 _1_ MAC  --- 31 ack 40 [0 1000000 8 0] ------- [1:0 0:0 32 0] [13 0] 0 0
r 0.776736862 _1_ MAC  --- 29 tcp 1040 [0 0 8 0] ------- [0:0 1:0 32 0] [14 0] 0 0
r 0.776761862 _1_ AGT  --- 29 tcp 1040 [0 0 8 0] ------- [0:0 1:0 32 0] [14 0] 0 0
s 0.776761862 _1_ AGT  --- 32 ack 40 [0 0 0 0] ------- [1:0 0:0 32 0] [14 0] 0 0
r 0.776761862 _1_ RTR  --- 32 ack 40 [0 0 0 0] ------- [1:0 0:0 32 0] [14 0] 0 0
s 0.776761862 _1_ RTR  --- 32 ack 40 [0 0 0 0] ------- [1:0 0:0 32 0] [14 0] 0 0
s 0.778136862 _1_ MAC  --- 32 ack 40 [0 1000000 8 0] ------- [1:0 0:0 32 0] [14 0] 0 0
r 0.778297460 _0_ MAC  --- 32 ack 40 [0 1000000 8 0] ------- [1:0 0:0 32 0] [14 0] 0 0
r 0.778322460 _0_ AGT  --- 32 ack 40 [0 1000000 8 0] ------- [1:0 0:0 32 0] [14 0] 0 0
s 0.778322460 _0_ AGT  --- 33 tcp 1040 [0 0 0 0] ------- [0:0 1:0 32 0] [15 0] 0 0
r 0.778322460 _0_ RTR  --- 33 tcp 1040 [0 0 0 0] ------- [0:0 1:0 32 0] [15 0] 0 0
s 0.778322460 _0_ RTR  --- 33 tcp 1040 [0 0 0 0] ------- [0:0 1:0 32 0] [15 0] 0 0
s 0.778322460 _0_ AGT  --- 34 tcp 1040 [0 0 0 0] ------- [0:0 1:0 32 0] [16 0] 0 0
r 0.778322460 _0_ RTR  --- 34 tcp 1040 [0 0 0 0] ------- [0:0 1:0 32 0] [16 0] 0 0
s 0.778322460 _0_ RTR  --- 34 tcp 1040 [0 0 0 0] ------- [0:0 1:0 32 0] [16 0] 0 0
s 0.778322460 _0_ AGT  --- 35 tcp 1040 [0 0 0 0] ------- [0:0 1:0 32 0] [17 0] 0 0
r 0.778322460 _0_ RTR  --- 35 tcp 1040 [0 0 0 0] ------- [0:0 1:0 32 0] [17 0] 0 0
s 0.778322460 _0_ RTR  --- 35 tcp 1040 [0 0 0 0] ------- [0:0 1:0 32 0] [17 0] 0 0
s 0.778322460 _0_ AGT  --- 36 tcp 1040 [0 0 0 0] ------- [0:0 1:0 32 0] [18 0] 0 0
r 0.778322460 _0_ RTR  --- 36 tcp 1040 [0 0 0 0] ------- [0:0 1:0 32 0] [18 0] 0 0
s 0.778322460 _0_ RTR  --- 36 tcp 1040 [0 0 0 0] ------- [0:0 1:0 32 0] [18 0] 0 0
s 0.778947460 _0_ MAC  --- 33 tcp 1040 [0 0 8 0] ------- [0:0 1:0 32 0] [15 0] 0 0
r 0.783108058 _1_ MAC  --- 33 tcp 1040 [0 0 8 0] ------- [0:0 1:0 32 0] [15 0] 0 0
r 0.783133058 _1_ AGT  --- 33 tcp 1040 [0 0 8 0] ------- [0:0 1:0 32 0] [15 0] 0 0
s 0.783133058 _1_ AGT  --- 37 ack 40 [0 0 0 0] ------- [1:0 0:0 32 0] [15 0] 0 0
r 0.783133058 _1_ RTR  --- 37 ack 40 [0 0 0 0] ------- [1:0 0:0 32 0] [15 0] 0 0
s 0.783133058 _1_ RTR  --- 37 ack 40 [0 0 0 0] ------- [1:0 0:0 32 0] [15 0] 0 0
s 0.783957460 _0_ MAC  --- 34 tcp 1040 [0 0 8 0] ------- [0:0 1:0 32 0] [16 0] 0 0
s 0.784758058 _1_ MAC  --- 37 ack 40 [0 1000000 8 0] ------- [1:0 0:0 32 0] [15 0] 0 0
r 0.788118057 _1_ MAC  --- 34 tcp 1040 [0 0 8 0] ------- [0:0 1:0 32 0] [16 0] 0 0
r 0.788143057 _1_ AGT  --- 34 tcp 1040 [0 0 8 0] ------- [0:0 1:0 32 0] [16 0] 0 0
s 0.788143057 _1_ AGT  --- 38 ack 40 [0 0 0 0] ------- [1:0 0:0 32 0] [16 0] 0 0
r 0.788143057 _1_ RTR  --- 38 ack 40 [0 0 0 0] ------- [1:0 0:0 32 0] [16 0] 0 0
s 0.788143057 _1_ RTR  --- 38 ack 40 [0 0 0 0] ------- [1:0 0:0 32 0] [16 0] 0 0
s 0.789267460 _0_ MAC  --- 35 tcp 1040 [0 0 8 0] ------- [0:0 1:0 32 0] [17 0] 0 0
s 0.789818057 _1_ MAC  --- 38 ack 40 [0 1000000 8 0] ------- [1:0 0:0 32 0] [16 0] 0 0
r 0.793428057 _1_ MAC  --- 35 tcp 1040 [0 0 8 0] ------- [0:0 1:0 32 0] [17 0] 0 0
r 0.793453057 _1_ AGT  --- 35 tcp 1040 [0 0 8 0] ------- [0:0 1:0 32 0] [17 0] 0 0
s 0.793453057 _1_ AGT  --- 39 ack 40 [0 0 0 0] ------- [1:0 0:0 32 0] [17 0] 0 0
r 0.793453057 _1_ RTR  --- 39 ack 40 [0 0 0 0] ------- [1:0 0:0 32 0] [17 0] 0 0
s 0.793453057 _1_ RTR  --- 39 ack 40 [0 0 0 0] ------- [1:0 0:0 32 0] [17 0] 0 0
s 0.794378057 _1_ MAC  --- 39 ack 40 [0 1000000 8 0] ------- [1:0 0:0 32 0] [17 0] 0 0
r 0.794538654 _0_ MAC  --- 39 ack 40 [0 1000000 8 0] ------- [1:0 0:0 32 0] [17 0] 0 0
r 0.794563654 _0_ AGT  --- 39 ack 40 [0 1000000 8 0] ------- [1:0 0:0 32 0] [17 0] 0 0
s 0.794563654 _0_ AGT  --- 40 tcp 1040 [0 0 0 0] ------- [0:0 1:0 32 0] [19 0] 0 0
r 0.794563654 _0_ RTR  --- 40 tcp 1040 [0 0 0 0] ------- [0:0 1:0 32 0] [19 0] 0 0
s 0.794563654 _0_ RTR  --- 40 tcp 1040 [0 0 0 0] ------- [0:0 1:0 32 0] [19 0] 0 0
s 0.794563654 _0_ AGT  --- 41 tcp 1040 [0 0 0 0] ------- [0:0 1:0 32 0] [20 0] 0 0
r 0.794563654 _0_ RTR  --- 41 tcp 1040 [0 0 0 0] ------- [0:0 1:0 32 0] [20 0] 0 0
s 0.794563654 _0_ RTR  --- 41 tcp 1040 [0 0 0 0] ------- [0:0 1:0 32 0] [20 0] 0 0
s 0.794563654 _0_ AGT  --- 42 tcp 1040 [0 0 0 0] ------- [0:0 1:0 32 0] [21 0] 0 0
r 0.794563654 _0_ RTR  --- 42 tcp 1040 [0 0 0 0] ------- [0:0 1:0 32 0] [21 0] 0 0
s 0.794563654 _0_ RTR  --- 42 tcp 1040 [0 0 0 0] ------- [0:0 1:0 32 0] [21 0] 0 0
s 0.794977460 _0_ MAC  --- 36 tcp 1040 [0 0 8 0] ------- [0:0 1:0 32 0] [18 0] 0 0
r 0.799138057 _1_ MAC  --- 36 tcp 1040 [0 0 8 0] ------- [0:0 1:0 32 0] [18 0] 0 0
r 0.799163057 _1_ AGT  --- 36 tcp 1040 [0 0 8 0] ------- [0:0 1:0 32 0] [18 0] 0 0
s 0.799163057 _1_ AGT  --- 43 ack 40 [0 0 0 0] ------- [1:0 0:0 32 0] [18 0] 0 0
r 0.799163057 _1_ RTR  --- 43 ack 40 [0 0 0 0] ------- [1:0 0:0 32 0] [18 0] 0 0
s 0.799163057 _1_ RTR  --- 43 ack 40 [0 0 0 0] ------- [1:0 0:0 32 0] [18 0] 0 0
s 0.799487460 _0_ MAC  --- 40 tcp 1040 [0 0 8 0] ------- [0:0 1:0 32 0] [19 0] 0 0
s 0.799638057 _1_ MAC  --- 43 ack 40 [0 1000000 8 0] ------- [1:0 0:0 32 0] [18 0] 0 0
r 0.803648057 _1_ MAC  --- 40 tcp 1040 [0 0 8 0] ------- [0:0 1:0 32 0] [19 0] 0 0
r 0.803673057 _1_ AGT  --- 40 tcp 1040 [0 0 8 0] ------- [0:0 1:0 32 0] [19 0] 0 0
s 0.803673057 _1_ AGT  --- 44 ack 40 [0 0 0 0] ------- [1:0 0:0 32 0] [19 0] 0 0
r 0.803673057 _1_ RTR  --- 44 ack 40 [0 0 0 0] ------- [1:0 0:0 32 0] [19 0] 0 0
s 0.803673057 _1_ RTR  --- 44 ack 40 [0 0 0 0] ------- [1:0 0:0 32 0] [19 0] 0 0
s 0.803898057 _1_ MAC  --- 44 ack 40 [0 1000000 8 0] ------- [1:0 0:0 32 0] [19 0] 0 0
r 0.804058653 _0_ MAC  --- 44 ack 40 [0 1000000 8 0] ------- [1:0 0:0 32 0] [19 0] 0 0
r 0.804083653 _0_ AGT  --- 44 ack 40 [0 1000000 8 0] ------- [1:0 0:0 32 0] [19 0] 0 0
s 0.804083653 _0_ AGT  --- 45 tcp 1040 [0 0 0 0] ------- [0:0 1:0 32 0] [22 0] 0 0
r 0.804083653 _0_ RTR  --- 45 tcp 1040 [0 0 0 0] ------- [0:0 1:0 32 0] [22 0] 0 0
s 0.804083653 _0_ RTR  --- 45 tcp 1040 [0 0 0 0] ------- [0:0 1:0 32 0] [22 0] 0 0
s 0.804083653 _0_ AGT  --- 46 tcp 1040 [0 0 0 0] ------- [0:0 1:0 32 0] [23 0] 0 0
r 0.804083653 _0_ RTR  --- 46 tcp 1040 [0 0 0 0] ------- [0:0 1:0 32 0] [23 0] 0 0
s 0.804083653 _0_ RTR  --- 46 tcp 1040 [0 0 0 0] ------- [0:0 1:0 32 0] [23 0] 0 0
s 0.804897460 _0_ MAC  --- 41 tcp 1040 [0 0 8 0] ------- [0:0 1:0 32 0] [20 0] 0 0
r 0.809058056 _1_ MAC  --- 41 tcp 1040 [0 0 8 0] ------- [0:0 1:0 32 0] [20 0] 0 0
r 0.809083056 _1_ AGT  --- 41 tcp 1040 [0 0 8 0] ------- [0:0 1:0 32 0] [20 0] 0 0
s 0.809083056 _1_ AGT  --- 47 ack 40 [0 0 0 0] ------- [1:0 0:0 32 0] [20 0] 0 0
r 0.809083056 _1_ RTR  --- 47 ack 40 [0 0 0 0] ------- [1:0 0:0 32 0] [20 0] 0 0
s 0.809083056 _1_ RTR  --- 47 ack 40 [0 0 0 0] ------- [1:0 0:0 32 0] [20 0] 0 0
s 0.810257460 _0_ MAC  --- 42 tcp 1040 [0 0 8 0] ------- [0:0 1:0 32 0] [21 0] 0 0
s 0.810958056 _1_ MAC  --- 47 ack 40 [0 1000000 8 0] ------- [1:0 0:0 32 0] [20 0] 0 0
r 0.814418056 _1_ MAC  --- 42 tcp 1040 [0 0 8 0] ------- [0:0 1:0 32 0] [21 0] 0 0
r 0.814443056 _1_ AGT  --- 42 tcp 1040 [0 0 8 0] ------- [0:0 1:0 32 0] [21 0] 0 0
s 0.814443056 _1_ AGT  --- 48 ack 40 [0 0 0 0] ------- [1:0 0:0 32 0] [21 0] 0 0
r 0.814443056 _1_ RTR  --- 48 ack 40 [0 0 0 0] ------- [1:0 0:0 32 0] [21 0] 0 0
s 0.814443056 _1_ RTR  --- 48 ack 40 [0 0 0 0] ------- [1:0 0:0 32 0] [21 0] 0 0
s 0.814918056 _1_ MAC  --- 48 ack 40 [0 1000000 8 0] ------- [1:0 0:0 32 0] [21 0] 0 0
s 0.815017460 _0_ MAC  --- 45 tcp 1040 [0 0 8 0] ------- [0:0 1:0 32 0] [22 0] 0 0
D 0.819178056 _1_ MAC  ERR 45 tcp 1040 [0 0 8 0] ------- [0:0 1:0 32 0] [22 0] 0 0
s 0.820427460 _0_ MAC  --- 46 tcp 1040 [0 0 8 0] ------- [0:0 1:0 32 0] [23 0] 0 0
r 0.824588056 _1_ MAC  --- 46 tcp 1040 [0 0 8 0] ------- [0:0 1:0 32 0] [23 0] 0 0
r 0.824613056 _1_ AGT  --- 46 tcp 1040 [0 0 8 0] ------- [0:0 1:0 32 0] [23 0] 0 0
s 0.824613056 _1_ AGT  --- 49 ack 40 [0 0 0 0] ------- [1:0 0:0 32 0] [21 0] 0 0
r 0.824613056 _1_ RTR  --- 49 ack 40 [0 0 0 0] ------- [1:0 0:0 32 0] [21 0] 0 0
s 0.824613056 _1_ RTR  --- 49 ack 40 [0 0 0 0] ------- [1:0 0:0 32 0] [21 0] 0 0
s 0.824788056 _1_ MAC  --- 49 ack 40 [0 1000000 8 0] ------- [1:0 0:0 32 0] [21 0] 0 0
r 0.824948651 _0_ MAC  --- 49 ack 40 [0 1000000 8 0] ------- [1:0 0:0 32 0] [21 0] 0 0
r 0.824973651 _0_ AGT  --- 49 ack 40 [0 1000000 8 0] ------- [1:0 0:0 32 0] [21 0] 0 0
s 0.824973651 _0_ AGT  --- 50 tcp 1040 [0 0 0 0] ------- [0:0 1:0 32 0] [24 0] 0 0
r 0.824973651 _0_ RTR  --- 50 tcp 1040 [0 0 0 0] ------- [0:0 1:0 32 0] [24 0] 0 0
s 0.824973651 _0_ RTR  --- 50 tcp 1040 [0 0 0 0] ------- [0:0 1:0 32 0] [24 0] 0 0
s 0.824973651 _0_ AGT  --- 51 tcp 1040 [0 0 0 0] ------- [0:0 1:0 32 0] [25 0] 0 0
r 0.824973651 _0_ RTR  --- 51 tcp 1040 [0 0 0 0] ------- [0:0 1:0 32 0] [25 0] 0 0
s 0.824973651 _0_ RTR  --- 51 tcp 1040 [0 0 0 0] ------- [0:0 1:0 32 0] [25 0] 0 0
s 0.826698651 _0_ MAC  --- 50 tcp 1040 [0 0 8 0] ------- [0:0 1:0 32 0] [24 0] 0 0
r 0.830859246 _1_ MAC  --- 50 tcp 1040 [0 0 8 0] ------- [0:0 1:0 32 0] [24 0] 0 0
r 0.830884246 _1_ AGT  --- 50 tcp 1040 [0 0 8 0] ------- [0:0 1:0 32 0] [24 0] 0 0
s 0.830884246 _1_ AGT  --- 52 ack 40 [0 0 0 0] ------- [1:0 0:0 32 0] [21 0] 0 0
r 0.830884246 _1_ RTR  --- 52 ack 40 [0 0 0 0] ------- [1:0 0:0 32 0] [21 0] 0 0
s 0.830884246 _1_ RTR  --- 52 ack 40 [0 0 0 0] ------- [1:0 0:0 32 0] [21 0] 0 0
s 0.831158651 _0_ MAC  --- 51 tcp 1040 [0 0 8 0] ------- [0:0 1:0 32 0] [25 0] 0 0
s 0.832359246 _1_ MAC  --- 52 ack 40 [0 1000000 8 0] ------- [1:0 0:0 32 0] [21 0] 0 0
r 0.835319246 _1_ MAC  --- 51 tcp 1040 [0 0 8 0] ------- [0:0 1:0 32 0] [25 0] 0 0
r 0.835344246 _1_ AGT  --- 51 tcp 1040 [0 0 8 0] ------- [0:0 1:0 32 0] [25 0] 0 0
s 0.835344246 _1_ AGT  --- 53 ack 40 [0 0 0 0] ------- [1:0 0:0 32 0] [21 0] 0 0
r 0.835344246 _1_ RTR  --- 53 ack 40 [0 0 0 0] ------- [1:0 0:0 32 0] [21 0] 0 0
s 0.835344246 _1_ RTR  --- 53 ack 40 [0 0 0 0] ------- [1:0 0:0 32 0] [21 0] 0 0
s 0.836419246 _1_ MAC  --- 53 ack 40 [0 1000000 8 0] ------- [1:0 0:0 32 0] [21 0] 0 0
r 0.836579841 _0_ MAC  --- 53 ack 40 [0 1000000 8 0] ------- [1:0 0:0 32 0] [21 0] 0 0
r 0.836604841 _0_ AGT  --- 53 ack 40 [0 1000000 8 0] ------- [1:0 0:0 32 0] [21 0] 0 0
s 0.836604841 _0_ AGT  --- 54 tcp 1040 [0 0 0 0] ------- [0:0 1:0 32 0] [26 0] 0 0
r 0.836604841 _0_ RTR  --- 54 tcp 1040 [0 0 0 0] ------- [0:0 1:0 32 0] [26 0] 0 0
s 0.836604841 _0_ RTR  --- 54 tcp 1040 [0 0 0 0] ------- [0:0 1:0 32 0] [26 0] 0 0
s 0.837779841 _0_ MAC  --- 54 tcp 1040 [0 0 8 0] ------- [0:0 1:0 32 0] [26 0] 0 0
r 0.841940435 _1_ MAC  --- 54 tcp 1040 [0 0 8 0] ------- [0:0 1:0 32 0] [26 0] 0 0
r 0.841965435 _1_ AGT  --- 54 tcp 1040 [0 0 8 0] ------- [0:0 1:0 32 0] [26 0] 0 0
s 0.841965435 _1_ AGT  --- 55 ack 40 [0 0 0 0] ------- [1:0 0:0 32 0] [21 0] 0 0
r 0.841965435 _1_ RTR  --- 55 ack 40 [0 0 0 0] ------- [1:0 0:0 32 0] [21 0] 0 0
s 0.841965435 _1_ RTR  --- 55 ack 40 [0 0 0 0] ------- [1:0 0:0 32 0] [21 0] 0 0
s 0.843190435 _1_ MAC  --- 55 ack 40 [0 1000000 8 0] ------- [1:0 0:0 32 0] [21 0] 0 0
r 0.843351030 _0_ MAC  --- 55 ack 40 [0 1000000 8 0] ------- [1:0 0:0 32 0] [21 0] 0 0
r 0.843376030 _0_ AGT  --- 55 ack 40 [0 1000000 8 0] ------- [1:0 0:0 32 0] [21 0] 0 0
s 0.843376030 _0_ AGT  --- 56 tcp 1040 [0 0 0 0] ------- [0:0 1:0 32 0] [27 0] 0 0
r 0.843376030 _0_ RTR  --- 56 tcp 1040 [0 0 0 0] ------- [0:0 1:0 32 0] [27 0] 0 0
s 0.843376030 _0_ RTR  --- 56 tcp 1040 [0 0 0 0] ------- [0:0 1:0 32 0] [27 0] 0 0
s 0.843701030 _0_ MAC  --- 56 tcp 1040 [0 0 8 0] ------- [0:0 1:0 32 0] [27 0] 0 0
r 0.847861624 _1_ MAC  --- 56 tcp 1040 [0 0 8 0] ------- [0:0 1:0 32 0] [27 0] 0 0
r 0.847886624 _1_ AGT  --- 56 tcp 1040 [0 0 8 0] ------- [0:0 1:0 32 0] [27 0] 0 0
s 0.847886624 _1_ AGT  --- 57 ack 40 [0 0 0 0] ------- [1:0 0:0 32 0] [21 0] 0 0
r 0.847886624 _1_ RTR  --- 57 ack 40 [0 0 0 0] ------- [1:0 0:0 32 0] [21 0] 0 0
s 0.847886624 _1_ RTR  --- 57 ack 40 [0 0 0 0] ------- [1:0 0:0 32 0] [21 0] 0 0
s 0.848061624 _1_ MAC  --- 57 ack 40 [0 1000000 8 0] ------- [1:0 0:0 32 0] [21 0] 0 0
r 0.848222218 _0_ MAC  --- 57 ack 40 [0 1000000 8 0] ------- [1:0 0:0 32 0] [21 0] 0 0
r 0.848247218 _0_ AGT  --- 57 ack 40 [0 1000000 8 0] ------- [1:0 0:0 32 0] [21 0] 0 0
s 0.848247218 _0_ AGT  --- 58 tcp 1040 [0 0 0 0] ------- [0:0 1:0 32 0] [22 0] 0 0
r 0.848247218 _0_ RTR  --- 58 tcp 1040 [0 0 0 0] ------- [0:0 1:0 32 0] [22 0] 0 0
s 0.848247218 _0_ RTR  --- 58 tcp 1040 [0 0 0 0] ------- [0:0 1:0 32 0] [22 0] 0 0
s 0.849272218 _0_ MAC  --- 58 tcp 1040 [0 0 8 0] ------- [0:0 1:0 32 0] [22 0] 0 0
r 0.853432812 _1_ MAC  --- 58 tcp 1040 [0 0 8 0] ------- [0:0 1:0 32 0] [22 0] 0 0
r 0.853457812 _1_ AGT  --- 58 tcp 1040 [0 0 8 0] ------- [0:0 1:0 32 0] [22 0] 0 0
s 0.853457812 _1_ AGT  --- 59 ack 40 [0 0 0 0] ------- [1:0 0:0 32 0] [27 0] 0 0
r 0.853457812 _1_ RTR  --- 59 ack 40 [0 0 0 0] ------- [1:0 0:0 32 0] [27 0] 0 0
s 0.853457812 _1_ RTR  --- 59 ack 40 [0 0 0 0] ------- [1:0 0:0 32 0] [27 0] 0 0
s 0.854732812 _1_ MAC  --- 59 ack 40 [0 1000000 8 0] ------- [1:0 0:0 32 0] [27 0] 0 0
r 0.854893406 _0_ MAC  --- 59 ack 40 [0 1000000 8 0] ------- [1:0 0:0 32 0] [27 0] 0 0
r 0.854918406 _0_ AGT  --- 59 ack 40 [0 1000000 8 0] ------- [1:0 0:0 32 0] [27 0] 0 0
s 0.854918406 _0_ AGT  --- 60 tcp 1040 [0 0 0 0] ------- [0:0 1:0 32 0] [28 0] 0 0
r 0.854918406 _0_ RTR  --- 60 tcp 1040 [0 0 0 0] ------- [0:0 1:0 32 0] [28 0] 0 0
s 0.854918406 _0_ RTR  --- 60 tcp 1040 [0 0 0 0] ------- [0:0 1:0 32 0] [28 0] 0 0
s 0.854918406 _0_ AGT  --- 61 tcp 1040 [0 0 0 0] ------- [0:0 1:0 32 0] [29 0] 0 0
r 0.854918406 _0_ RTR  --- 61 tcp 1040 [0 0 0 0] ------- [0:0 1:0 32 0] [29 0] 0 0
s 0.854918406 _0_ RTR  --- 61 tcp 1040 [0 0 0 0] ------- [0:0 1:0 32 0] [29 0] 0 0
s 0.855193406 _0_ MAC  --- 60 tcp 1040 [0 0 8 0] ------- [0:0 1:0 32 0] [28 0] 0 0
r 0.859354000 _1_ MAC  --- 60 tcp 1040 [0 0 8 0] ------- [0:0 1:0 32 0] [28 0] 0 0
r 0.859379000 _1_ AGT  --- 60 tcp 1040 [0 0 8 0] ------- [0:0 1:0 32 0] [28 0] 0 0
s 0.859379000 _1_ AGT  --- 62 ack 40 [0 0 0 0] ------- [1:0 0:0 32 0] [28 0] 0 0
r 0.859379000 _1_ RTR  --- 62 ack 40 [0 0 0 0] ------- [1:0 0:0 32 0] [28 0] 0 0
s 0.859379000 _1_ RTR  --- 62 ack 40 [0 0 0 0] ------- [1:0 0:0 32 0] [28 0] 0 0
s 0.860103406 _0_ MAC  --- 61 tcp 1040 [0 0 8 0] ------- [0:0 1:0 32 0] [29 0] 0 0
s 0.860804000 _1_ MAC  --- 62 ack 40 [0 1000000 8 0] ------- [1:0 0:0 32 0] [28 0] 0 0
r 0.864264000 _1_ MAC  --- 61 tcp 1040 [0 0 8 0] ------- [0:0 1:0 32 0] [29 0] 0 0
r 0.864289000 _1_ AGT  --- 61 tcp 1040 [0 0 8 0] ------- [0:0 1:0 32 0] [29 0] 0 0
s 0.864289000 _1_ AGT  --- 63 ack 40 [0 0 0 0] ------- [1:0 0:0 32 0] [29 0] 0 0
r 0.864289000 _1_ RTR  --- 63 ack 40 [0 0 0 0] ------- [1:0 0:0 32 0] [29 0] 0 0
s 0.864289000 _1_ RTR  --- 63 ack 40 [0 0 0 0] ------- [1:0 0:0 32 0] [29 0] 0 0
s 0.864464000 _1_ MAC  --- 63 ack 40 [0 1000000 8 0] ------- [1:0 0:0 32 0] [29 0] 0 0
r 0.864624593 _0_ MAC  --- 63 ack 40 [0 1000000 8 0] ------- [1:0 0:0 32 0] [29 0] 0 0
r 0.864649593 _0_ AGT  --- 63 ack 40 [0 1000000 8 0] ------- [1:0 0:0 32 0] [29 0] 0 0
s 0.864649593 _0_ AGT  --- 64 tcp 1040 [0 0 0 0] ------- [0:0 1:0 32 0] [30 0] 0 0
r 0.864649593 _0_ RTR  --- 64 tcp 1040 [0 0 0 0] ------- [0:0 1:0 32 0] [30 0] 0 0
s 0.864649593 _0_ RTR  --- 64 tcp 1040 [0 0 0 0] ------- [0:0 1:0 32 0] [30 0] 0 0