M 2.00000 0 (253.33, 43.63, 0.00), (235.94, 176.64), 4.31
M 2.00000 1 (43.29, 216.34, 0.00), (289.90, 61.88), 7.41
M 2.00000 2 (301.26, 254.49, 0.00), (67.37, 316.77), 2.31
M 2.00000 3 (2.95, 227.86, 0.00), (304.98, 345.91), 1.48
M 2.00000 4 (36.10, 157.87, 0.00), (162.84, 253.02), 8.52
s 2.556838879 _1_ AGT  --- 0 cbr 512 [0 0 0 0] ------- [1:0 2:0 32 0] [0] 0 3
r 2.556838879 _1_ RTR  --- 0 cbr 512 [0 0 0 0] ------- [1:0 2:0 32 0] [0] 0 3
s 2.556838879 _1_ RTR  --- 0 cbr 512 [0 0 0 0] ------- [1:0 2:0 32 0] [0] 0 3
s 2.556933879 _1_ MAC  --- 0 ARP 80 [0 ffffffff 1 806] ------- [REQUEST 1/1 0/2]
r 2.557574030 _3_ MAC  --- 0 ARP 28 [0 ffffffff 1 806] ------- [REQUEST 1/1 0/2]
r 2.557574058 _4_ MAC  --- 0 ARP 28 [0 ffffffff 1 806] ------- [REQUEST 1/1 0/2]
s 2.681923773 _1_ AGT  --- 1 cbr 512 [0 0 0 0] ------- [1:0 2:0 32 0] [1] 0 3
r 2.681923773 _1_ RTR  --- 1 cbr 512 [0 0 0 0] ------- [1:0 2:0 32 0] [1] 0 3
s 2.681923773 _1_ RTR  --- 1 cbr 512 [0 0 0 0] ------- [1:0 2:0 32 0] [1] 0 3
D 2.681923773 _1_ IFQ  ARP 0 cbr 512 [0 0 1 800] ------- [1:0 2:0 32 0] [0] 0 3
s 2.682298773 _1_ MAC  --- 0 ARP 80 [0 ffffffff 1 806] ------- [REQUEST 1/1 0/2]
r 2.682938926 _3_ MAC  --- 0 ARP 28 [0 ffffffff 1 806] ------- [REQUEST 1/1 0/2]
r 2.682938949 _4_ MAC  --- 0 ARP 28 [0 ffffffff 1 806] ------- [REQUEST 1/1 0/2]
s 2.828954441 _1_ AGT  --- 2 cbr 512 [0 0 0 0] ------- [1:0 2:0 32 0] [2] 0 3
r 2.828954441 _1_ RTR  --- 2 cbr 512 [0 0 0 0] ------- [1:0 2:0 32 0] [2] 0 3
s 2.828954441 _1_ RTR  --- 2 cbr 512 [0 0 0 0] ------- [1:0 2:0 32 0] [2] 0 3
D 2.828954441 _1_ IFQ  ARP 1 cbr 512 [0 0 1 800] ------- [1:0 2:0 32 0] [1] 0 3
s 2.829209441 _1_ MAC  --- 0 ARP 80 [0 ffffffff 1 806] ------- [REQUEST 1/1 0/2]
r 2.829849597 _3_ MAC  --- 0 ARP 28 [0 ffffffff 1 806] ------- [REQUEST 1/1 0/2]
r 2.829849612 _4_ MAC  --- 0 ARP 28 [0 ffffffff 1 806] ------- [REQUEST 1/1 0/2]
s 3.032194884 _1_ AGT  --- 3 cbr 512 [0 0 0 0] ------- [1:0 2:0 32 0] [3] 0 3
r 3.032194884 _1_ RTR  --- 3 cbr 512 [0 0 0 0] ------- [1:0 2:0 32 0] [3] 0 3
s 3.032194884 _1_ RTR  --- 3 cbr 512 [0 0 0 0] ------- [1:0 2:0 32 0] [3] 0 3
D 3.032194884 _1_ IFQ  ARP 2 cbr 512 [0 0 1 800] ------- [1:0 2:0 32 0] [2] 0 3
D 3.032194884 _1_ IFQ  ARP 3 cbr 512 [0 0 1 800] ------- [1:0 2:0 32 0] [3] 0 3
s 3.316911170 _1_ AGT  --- 4 cbr 512 [0 0 0 0] ------- [1:0 2:0 32 0] [4] 0 3
r 3.316911170 _1_ RTR  --- 4 cbr 512 [0 0 0 0] ------- [1:0 2:0 32 0] [4] 0 3
s 3.316911170 _1_ RTR  --- 4 cbr 512 [0 0 0 0] ------- [1:0 2:0 32 0] [4] 0 3
s 3.317206170 _1_ MAC  --- 0 ARP 80 [0 ffffffff 1 806] ------- [REQUEST 1/1 0/2]
r 3.317846326 _4_ MAC  --- 0 ARP 28 [0 ffffffff 1 806] ------- [REQUEST 1/1 0/2]
r 3.317846336 _3_ MAC  --- 0 ARP 28 [0 ffffffff 1 806] ------- [REQUEST 1/1 0/2]
s 3.519180934 _1_ AGT  --- 5 cbr 512 [0 0 0 0] ------- [1:0 2:0 32 0] [5] 0 1
r 3.519180934 _1_ RTR  --- 5 cbr 512 [0 0 0 0] ------- [1:0 2:0 32 0] [5] 0 1
s 3.519180934 _1_ RTR  --- 5 cbr 512 [0 0 0 0] ------- [1:0 2:0 32 0] [5] 0 1
D 3.519180934 _1_ IFQ  ARP 4 cbr 512 [0 0 1 800] ------- [1:0 2:0 32 0] [4] 0 3
s 3.519395934 _1_ MAC  --- 0 ARP 80 [0 ffffffff 1 806] ------- [REQUEST 1/1 0/2]
r 3.520036085 _4_ MAC  --- 0 ARP 28 [0 ffffffff 1 806] ------- [REQUEST 1/1 0/2]
r 3.520036105 _3_ MAC  --- 0 ARP 28 [0 ffffffff 1 806] ------- [REQUEST 1/1 0/2]
r 3.520036764 _2_ MAC  --- 0 ARP 28 [0 ffffffff 1 806] ------- [REQUEST 1/1 0/2]
s 3.520331764 _2_ MAC  --- 0 RTS 44 [4fe 1 2 0] 
r 3.520684595 _1_ MAC  --- 0 RTS 44 [4fe 1 2 0] 
s 3.520694595 _1_ MAC  --- 0 CTS 38 [3c4 2 0 0] 
r 3.520999425 _2_ MAC  --- 0 CTS 38 [3c4 2 0 0] 
s 3.521009425 _2_ MAC  --- 0 ARP 80 [13a 1 2 806] ------- [REPLY 2/2 1/1]
r 3.521650256 _1_ MAC  --- 0 ARP 28 [13a 1 2 806] ------- [REPLY 2/2 1/1]
s 3.521660256 _1_ MAC  --- 0 ACK 38 [0 2 0 0] 
r 3.521965086 _2_ MAC  --- 0 ACK 38 [0 2 0 0] 
s 3.522134256 _1_ MAC  --- 0 RTS 44 [141e 2 1 0] 
r 3.522487086 _2_ MAC  --- 0 RTS 44 [141e 2 1 0] 
s 3.522497086 _2_ MAC  --- 0 CTS 38 [12e4 1 0 0] 
r 3.522801917 _1_ MAC  --- 0 CTS 38 [12e4 1 0 0] 
s 3.522811917 _1_ MAC  --- 5 cbr 564 [13a 2 1 800] ------- [1:0 2:0 32 0] [5] 0 1
r 3.527324747 _2_ MAC  --- 5 cbr 512 [13a 2 1 800] ------- [1:0 2:0 32 0] [5] 1 1
s 3.527334747 _2_ MAC  --- 0 ACK 38 [0 1 0 0] 
r 3.527349747 _2_ AGT  --- 5 cbr 512 [13a 2 1 800] ------- [1:0 2:0 32 0] [5] 1 1
r 3.527639577 _1_ MAC  --- 0 ACK 38 [0 1 0 0] 
s 3.654879573 _1_ AGT  --- 6 cbr 512 [0 0 0 0] ------- [1:0 2:0 32 0] [6] 0 1
r 3.654879573 _1_ RTR  --- 6 cbr 512 [0 0 0 0] ------- [1:0 2:0 32 0] [6] 0 1
s 3.654879573 _1_ RTR  --- 6 cbr 512 [0 0 0 0] ------- [1:0 2:0 32 0] [6] 0 1
s 3.655274573 _1_ MAC  --- 0 RTS 44 [141e 2 1 0] 
r 3.655627400 _2_ MAC  --- 0 RTS 44 [141e 2 1 0] 
s 3.655637400 _2_ MAC  --- 0 CTS 38 [12e4 1 0 0] 
r 3.655942228 _1_ MAC  --- 0 CTS 38 [12e4 1 0 0] 
s 3.655952228 _1_ MAC  --- 6 cbr 564 [13a 2 1 800] ------- [1:0 2:0 32 0] [6] 0 1
r 3.660465055 _2_ MAC  --- 6 cbr 512 [13a 2 1 800] ------- [1:0 2:0 32 0] [6] 1 1
s 3.660475055 _2_ MAC  --- 0 ACK 38 [0 1 0 0] 
r 3.660490055 _2_ AGT  --- 6 cbr 512 [13a 2 1 800] ------- [1:0 2:0 32 0] [6] 1 1
r 3.660779881 _1_ MAC  --- 0 ACK 38 [0 1 0 0] 
s 3.803414287 _1_ AGT  --- 7 cbr 512 [0 0 0 0] ------- [1:0 2:0 32 0] [7] 0 1
r 3.803414287 _1_ RTR  --- 7 cbr 512 [0 0 0 0] ------- [1:0 2:0 32 0] [7] 0 1
s 3.803414287 _1_ RTR  --- 7 cbr 512 [0 0 0 0] ------- [1:0 2:0 32 0] [7] 0 1
s 3.803509287 _1_ MAC  --- 0 RTS 44 [141e 2 1 0] 
r 3.803862110 _2_ MAC  --- 0 RTS 44 [141e 2 1 0] 
s 3.803872110 _2_ MAC  --- 0 CTS 38 [12e4 1 0 0] 
r 3.804176934 _1_ MAC  --- 0 CTS 38 [12e4 1 0 0] 
s 3.804186934 _1_ MAC  --- 7 cbr 564 [13a 2 1 800] ------- [1:0 2:0 32 0] [7] 0 1
r 3.808699757 _2_ MAC  --- 7 cbr 512 [13a 2 1 800] ------- [1:0 2:0 32 0] [7] 1 1
s 3.808709757 _2_ MAC  --- 0 ACK 38 [0 1 0 0] 
r 3.808724757 _2_ AGT  --- 7 cbr 512 [13a 2 1 800] ------- [1:0 2:0 32 0] [7] 1 1
r 3.809014580 _1_ MAC  --- 0 ACK 38 [0 1 0 0] 
s 3.992936274 _1_ AGT  --- 8 cbr 512 [0 0 0 0] ------- [1:0 2:0 32 0] [8] 0 1
r 3.992936274 _1_ RTR  --- 8 cbr 512 [0 0 0 0] ------- [1:0 2:0 32 0] [8] 0 1
s 3.992936274 _1_ RTR  --- 8 cbr 512 [0 0 0 0] ------- [1:0 2:0 32 0] [8] 0 1
s 3.993191274 _1_ MAC  --- 0 RTS 44 [141e 2 1 0] 
r 3.993544093 _2_ MAC  --- 0 RTS 44 [141e 2 1 0] 
s 3.993554093 _2_ MAC  --- 0 CTS 38 [12e4 1 0 0] 
r 3.993858911 _1_ MAC  --- 0 CTS 38 [12e4 1 0 0] 
s 3.993868911 _1_ MAC  --- 8 cbr 564 [13a 2 1 800] ------- [1:0 2:0 32 0] [8] 0 1
r 3.998381730 _2_ MAC  --- 8 cbr 512 [13a 2 1 800] ------- [1:0 2:0 32 0] [8] 1 1
s 3.998391730 _2_ MAC  --- 0 ACK 38 [0 1 0 0] 
r 3.998406730 _2_ AGT  --- 8 cbr 512 [13a 2 1 800] ------- [1:0 2:0 32 0] [8] 1 1
r 3.998696548 _1_ MAC  --- 0 ACK 38 [0 1 0 0] 
s 4.234465258 _1_ AGT  --- 9 cbr 512 [0 0 0 0] ------- [1:0 2:0 32 0] [9] 0 1
r 4.234465258 _1_ RTR  --- 9 cbr 512 [0 0 0 0] ------- [1:0 2:0 32 0] [9] 0 1
s 4.234465258 _1_ RTR  --- 9 cbr 512 [0 0 0 0] ------- [1:0 2:0 32 0] [9] 0 1
s 4.235080258 _1_ MAC  --- 0 RTS 44 [141e 2 1 0] 
r 4.235433071 _2_ MAC  --- 0 RTS 44 [141e 2 1 0] 
s 4.235443071 _2_ MAC  --- 0 CTS 38 [12e4 1 0 0] 
r 4.235747884 _1_ MAC  --- 0 CTS 38 [12e4 1 0 0] 
s 4.235757884 _1_ MAC  --- 9 cbr 564 [13a 2 1 800] ------- [1:0 2:0 32 0] [9] 0 1
r 4.240270696 _2_ MAC  --- 9 cbr 512 [13a 2 1 800] ------- [1:0 2:0 32 0] [9] 1 1
s 4.240280696 _2_ MAC  --- 0 ACK 38 [0 1 0 0] 
r 4.240295696 _2_ AGT  --- 9 cbr 512 [13a 2 1 800] ------- [1:0 2:0 32 0] [9] 1 1
r 4.240585509 _1_ MAC  --- 0 ACK 38 [0 1 0 0] 
s 4.569421559 _1_ AGT  --- 10 cbr 512 [0 0 0 0] ------- [1:0 2:0 32 0] [10] 0 1
r 4.569421559 _1_ RTR  --- 10 cbr 512 [0 0 0 0] ------- [1:0 2:0 32 0] [10] 0 1
s 4.569421559 _1_ RTR  --- 10 cbr 512 [0 0 0 0] ------- [1:0 2:0 32 0] [10] 0 1
s 4.569796559 _1_ MAC  --- 0 RTS 44 [141e 2 1 0] 
r 4.570149363 _2_ MAC  --- 0 RTS 44 [141e 2 1 0] 
s 4.570159363 _2_ MAC  --- 0 CTS 38 [12e4 1 0 0] 
r 4.570464168 _1_ MAC  --- 0 CTS 38 [12e4 1 0 0] 
s 4.570474168 _1_ MAC  --- 10 cbr 564 [13a 2 1 800] ------- [1:0 2:0 32 0] [10] 0 1
r 4.574986972 _2_ MAC  --- 10 cbr 512 [13a 2 1 800] ------- [1:0 2:0 32 0] [10] 1 1
s 4.574996972 _2_ MAC  --- 0 ACK 38 [0 1 0 0] 
r 4.575011972 _2_ AGT  --- 10 cbr 512 [13a 2 1 800] ------- [1:0 2:0 32 0] [10] 1 1
r 4.575301776 _1_ MAC  --- 0 ACK 38 [0 1 0 0] 
s 4.907198197 _1_ AGT  --- 11 cbr 512 [0 0 0 0] ------- [1:0 2:0 32 0] [11] 0 1
r 4.907198197 _1_ RTR  --- 11 cbr 512 [0 0 0 0] ------- [1:0 2:0 32 0] [11] 0 1
s 4.907198197 _1_ RTR  --- 11 cbr 512 [0 0 0 0] ------- [1:0 2:0 32 0] [11] 0 1
s 4.907353197 _1_ MAC  --- 0 RTS 44 [141e 2 1 0] 
r 4.907705993 _2_ MAC  --- 0 RTS 44 [141e 2 1 0] 
s 4.907715993 _2_ MAC  --- 0 CTS 38 [12e4 1 0 0] 
r 4.908020789 _1_ MAC  --- 0 CTS 38 [12e4 1 0 0] 
s 4.908030789 _1_ MAC  --- 11 cbr 564 [13a 2 1 800] ------- [1:0 2:0 32 0] [11] 0 1
r 4.912543585 _2_ MAC  --- 11 cbr 512 [13a 2 1 800] ------- [1:0 2:0 32 0] [11] 1 1
s 4.912553585 _2_ MAC  --- 0 ACK 38 [0 1 0 0] 
r 4.912568585 _2_ AGT  --- 11 cbr 512 [13a 2 1 800] ------- [1:0 2:0 32 0] [11] 1 1
r 4.912858381 _1_ MAC  --- 0 ACK 38 [0 1 0 0] 
s 5.258434564 _1_ AGT  --- 12 cbr 512 [0 0 0 0] ------- [1:0 2:0 32 0] [12] 0 1
r 5.258434564 _1_ RTR  --- 12 cbr 512 [0 0 0 0] ------- [1:0 2:0 32 0] [12] 0 1
s 5.258434564 _1_ RTR  --- 12 cbr 512 [0 0 0 0] ------- [1:0 2:0 32 0] [12] 0 1
s 5.258609564 _1_ MAC  --- 0 RTS 44 [141e 2 1 0] 
r 5.258962352 _2_ MAC  --- 0 RTS 44 [141e 2 1 0] 
s 5.258972352 _2_ MAC  --- 0 CTS 38 [12e4 1 0 0] 
r 5.259277139 _1_ MAC  --- 0 CTS 38 [12e4 1 0 0] 
s 5.259287139 _1_ MAC  --- 12 cbr 564 [13a 2 1 800] ------- [1:0 2:0 32 0] [12] 0 1
r 5.263799927 _2_ MAC  --- 12 cbr 512 [13a 2 1 800] ------- [1:0 2:0 32 0] [12] 1 1
s 5.263809927 _2_ MAC  --- 0 ACK 38 [0 1 0 0] 
r 5.263824927 _2_ AGT  --- 12 cbr 512 [13a 2 1 800] ------- [1:0 2:0 32 0] [12] 1 1
r 5.264114714 _1_ MAC  --- 0 ACK 38 [0 1 0 0] 
s 5.484486446 _1_ AGT  --- 13 cbr 512 [0 0 0 0] ------- [1:0 2:0 32 0] [13] 0 1
r 5.484486446 _1_ RTR  --- 13 cbr 512 [0 0 0 0] ------- [1:0 2:0 32 0] [13] 0 1
s 5.484486446 _1_ RTR  --- 13 cbr 512 [0 0 0 0] ------- [1:0 2:0 32 0] [13] 0 1
s 5.484761446 _1_ MAC  --- 0 RTS 44 [141e 2 1 0] 
r 5.485114228 _2_ MAC  --- 0 RTS 44 [141e 2 1 0] 
s 5.485124228 _2_ MAC  --- 0 CTS 38 [12e4 1 0 0] 
r 5.485429010 _1_ MAC  --- 0 CTS 38 [12e4 1 0 0] 
s 5.485439010 _1_ MAC  --- 13 cbr 564 [13a 2 1 800] ------- [1:0 2:0 32 0] [13] 0 1
r 5.489951792 _2_ MAC  --- 13 cbr 512 [13a 2 1 800] ------- [1:0 2:0 32 0] [13] 1 1
s 5.489961792 _2_ MAC  --- 0 ACK 38 [0 1 0 0] 
r 5.489976792 _2_ AGT  --- 13 cbr 512 [13a 2 1 800] ------- [1:0 2:0 32 0] [13] 1 1
r 5.490266574 _1_ MAC  --- 0 ACK 38 [0 1 0 0] 
s 5.846052685 _1_ AGT  --- 14 cbr 512 [0 0 0 0] ------- [1:0 2:0 32 0] [14] 0 1
r 5.846052685 _1_ RTR  --- 14 cbr 512 [0 0 0 0] ------- [1:0 2:0 32 0] [14] 0 1
s 5.846052685 _1_ RTR  --- 14 cbr 512 [0 0 0 0] ------- [1:0 2:0 32 0] [14] 0 1
s 5.846247685 _1_ MAC  --- 0 RTS 44 [141e 2 1 0] 
r 5.846600458 _2_ MAC  --- 0 RTS 44 [141e 2 1 0] 
s 5.846610458 _2_ MAC  --- 0 CTS 38 [12e4 1 0 0] 
r 5.846915231 _1_ MAC  --- 0 CTS 38 [12e4 1 0 0] 
s 5.846925231 _1_ MAC  --- 14 cbr 564 [13a 2 1 800] ------- [1:0 2:0 32 0] [14] 0 1
r 5.851438004 _2_ MAC  --- 14 cbr 512 [13a 2 1 800] ------- [1:0 2:0 32 0] [14] 1 1
s 5.851448004 _2_ MAC  --- 0 ACK 38 [0 1 0 0] 
r 5.851463004 _2_ AGT  --- 14 cbr 512 [13a 2 1 800] ------- [1:0 2:0 32 0] [14] 1 1
r 5.851752778 _1_ MAC  --- 0 ACK 38 [0 1 0 0] 
s 5.985653342 _1_ AGT  --- 15 cbr 512 [0 0 0 0] ------- [1:0 2:0 32 0] [15] 0 1
r 5.985653342 _1_ RTR  --- 15 cbr 512 [0 0 0 0] ------- [1:0 2:0 32 0] [15] 0 1
s 5.985653342 _1_ RTR  --- 15 cbr 512 [0 0 0 0] ------- [1:0 2:0 32 0] [15] 0 1
s 5.986008342 _1_ MAC  --- 0 RTS 44 [141e 2 1 0] 
r 5.986361112 _2_ MAC  --- 0 RTS 44 [141e 2 1 0] 
s 5.986371112 _2_ MAC  --- 0 CTS 38 [12e4 1 0 0] 
r 5.986675881 _1_ MAC  --- 0 CTS 38 [12e4 1 0 0] 
s 5.986685881 _1_ MAC  --- 15 cbr 564 [13a 2 1 800] ------- [1:0 2:0 32 0] [15] 0 1
r 5.991198651 _2_ MAC  --- 15 cbr 512 [13a 2 1 800] ------- [1:0 2:0 32 0] [15] 1 1
s 5.991208651 _2_ MAC  --- 0 ACK 38 [0 1 0 0] 
r 5.991223651 _2_ AGT  --- 15 cbr 512 [13a 2 1 800] ------- [1:0 2:0 32 0] [15] 1 1
r 5.991513421 _1_ MAC  --- 0 ACK 38 [0 1 0 0] 
s 6.194569031 _1_ AGT  --- 16 cbr 512 [0 0 0 0] ------- [1:0 2:0 32 0] [16] 0 1
r 6.194569031 _1_ RTR  --- 16 cbr 512 [0 0 0 0] ------- [1:0 2:0 32 0] [16] 0 1
s 6.194569031 _1_ RTR  --- 16 cbr 512 [0 0 0 0] ------- [1:0 2:0 32 0] [16] 0 1
s 6.195124031 _1_ MAC  --- 0 RTS 44 [141e 2 1 0] 
r 6.195476796 _2_ MAC  --- 0 RTS 44 [141e 2 1 0] 
s 6.195486796 _2_ MAC  --- 0 CTS 38 [12e4 1 0 0] 
r 6.195791561 _1_ MAC  --- 0 CTS 38 [12e4 1 0 0] 
s 6.195801561 _1_ MAC  --- 16 cbr 564 [13a 2 1 800] ------- [1:0 2:0 32 0] [16] 0 1
r 6.200314326 _2_ MAC  --- 16 cbr 512 [13a 2 1 800] ------- [1:0 2:0 32 0] [16] 1 1
s 6.200324326 _2_ MAC  --- 0 ACK 38 [0 1 0 0] 
r 6.200339326 _2_ AGT  --- 16 cbr 512 [13a 2 1 800] ------- [1:0 2:0 32 0] [16] 1 1
r 6.200629091 _1_ MAC  --- 0 ACK 38 [0 1 0 0] 
s 6.383817466 _1_ AGT  --- 17 cbr 512 [0 0 0 0] ------- [1:0 2:0 32 0] [17] 0 1
r 6.383817466 _1_ RTR  --- 17 cbr 512 [0 0 0 0] ------- [1:0 2:0 32 0] [17] 0 1
s 6.383817466 _1_ RTR  --- 17 cbr 512 [0 0 0 0] ------- [1:0 2:0 32 0] [17] 0 1
s 6.384212466 _1_ MAC  --- 0 RTS 44 [141e 2 1 0] 
r 6.384565226 _2_ MAC  --- 0 RTS 44 [141e 2 1 0] 
s 6.384575226 _2_ MAC  --- 0 CTS 38 [12e4 1 0 0] 
r 6.384879987 _1_ MAC  --- 0 CTS 38 [12e4 1 0 0] 
s 6.384889987 _1_ MAC  --- 17 cbr 564 [13a 2 1 800] ------- [1:0 2:0 32 0] [17] 0 1
r 6.389402747 _2_ MAC  --- 17 cbr 512 [13a 2 1 800] ------- [1:0 2:0 32 0] [17] 1 1
s 6.389412747 _2_ MAC  --- 0 ACK 38 [0 1 0 0] 
r 6.389427747 _2_ AGT  --- 17 cbr 512 [13a 2 1 800] ------- [1:0 2:0 32 0] [17] 1 1
r 6.389717508 _1_ MAC  --- 0 ACK 38 [0 1 0 0] 
s 6.727981384 _1_ AGT  --- 18 cbr 512 [0 0 0 0] ------- [1:0 2:0 32 0] [18] 0 1
r 6.727981384 _1_ RTR  --- 18 cbr 512 [0 0 0 0] ------- [1:0 2:0 32 0] [18] 0 1
s 6.727981384 _1_ RTR  --- 18 cbr 512 [0 0 0 0] ------- [1:0 2:0 32 0] [18] 0 1
s 6.728136384 _1_ MAC  --- 0 RTS 44 [141e 2 1 0] 
r 6.728489137 _2_ MAC  --- 0 RTS 44 [141e 2 1 0] 
s 6.728499137 _2_ MAC  --- 0 CTS 38 [12e4 1 0 0] 
r 6.728803889 _1_ MAC  --- 0 CTS 38 [12e4 1 0 0] 
s 6.728813889 _1_ MAC  --- 18 cbr 564 [13a 2 1 800] ------- [1:0 2:0 32 0] [18] 0 1
r 6.733326642 _2_ MAC  --- 18 cbr 512 [13a 2 1 800] ------- [1:0 2:0 32 0] [18] 1 1
s 6.733336642 _2_ MAC  --- 0 ACK 38 [0 1 0 0] 
r 6.733351642 _2_ AGT  --- 18 cbr 512 [13a 2 1 800] ------- [1:0 2:0 32 0] [18] 1 1
r 6.733641394 _1_ MAC  --- 0 ACK 38 [0 1 0 0] 
s 6.959403204 _1_ AGT  --- 19 cbr 512 [0 0 0 0] ------- [1:0 2:0 32 0] [19] 0 1
r 6.959403204 _1_ RTR  --- 19 cbr 512 [0 0 0 0] ------- [1:0 2:0 32 0] [19] 0 1
s 6.959403204 _1_ RTR  --- 19 cbr 512 [0 0 0 0] ------- [1:0 2:0 32 0] [19] 0 1
s 6.959718204 _1_ MAC  --- 0 RTS 44 [141e 2 1 0] 
r 6.960070951 _2_ MAC  --- 0 RTS 44 [141e 2 1 0] 
s 6.960080951 _2_ MAC  --- 0 CTS 38 [12e4 1 0 0] 
r 6.960385698 _1_ MAC  --- 0 CTS 38 [12e4 1 0 0] 
s 6.960395698 _1_ MAC  --- 19 cbr 564 [13a 2 1 800] ------- [1:0 2:0 32 0] [19] 0 1
r 6.964908445 _2_ MAC  --- 19 cbr 512 [13a 2 1 800] ------- [1:0 2:0 32 0] [19] 1 1
s 6.964918445 _2_ MAC  --- 0 ACK 38 [0 1 0 0] 
r 6.964933445 _2_ AGT  --- 19 cbr 512 [13a 2 1 800] ------- [1:0 2:0 32 0] [19] 1 1
r 6.965223192 _1_ MAC  --- 0 ACK 38 [0 1 0 0] 
s 7.130956767 _1_ AGT  --- 20 cbr 512 [0 0 0 0] ------- [1:0 2:0 32 0] [20] 0 1
r 7.130956767 _1_ RTR  --- 20 cbr 512 [0 0 0 0] ------- [1:0 2:0 32 0] [20] 0 1
s 7.130956767 _1_ RTR  --- 20 cbr 512 [0 0 0 0] ------- [1:0 2:0 32 0] [20] 0 1
s 7.131051767 _1_ MAC  --- 0 RTS 44 [141e 2 1 0] 
r 7.131404510 _2_ MAC  --- 0 RTS 44 [141e 2 1 0] 
s 7.131414510 _2_ MAC  --- 0 CTS 38 [12e4 1 0 0] 
r 7.131719253 _1_ MAC  --- 0 CTS 38 [12e4 1 0 0] 
s 7.131729253 _1_ MAC  --- 20 cbr 564 [13a 2 1 800] ------- [1:0 2:0 32 0] [20] 0 1
r 7.136241996 _2_ MAC  --- 20 cbr 512 [13a 2 1 800] ------- [1:0 2:0 32 0] [20] 1 1
s 7.136251996 _2_ MAC  --- 0 ACK 38 [0 1 0 0] 
r 7.136266996 _2_ AGT  --- 20 cbr 512 [13a 2 1 800] ------- [1:0 2:0 32 0] [20] 1 1
r 7.136556739 _1_ MAC  --- 0 ACK 38 [0 1 0 0] 
s 7.449130702 _1_ AGT  --- 21 cbr 512 [0 0 0 0] ------- [1:0 2:0 32 0] [21] 0 1
r 7.449130702 _1_ RTR  --- 21 cbr 512 [0 0 0 0] ------- [1:0 2:0 32 0] [21] 0 1
s 7.449130702 _1_ RTR  --- 21 cbr 512 [0 0 0 0] ------- [1:0 2:0 32 0] [21] 0 1
s 7.449325702 _1_ MAC  --- 0 RTS 44 [141e 2 1 0] 
r 7.449678437 _2_ MAC  --- 0 RTS 44 [141e 2 1 0] 
s 7.449688437 _2_ MAC  --- 0 CTS 38 [12e4 1 0 0] 
r 7.449993173 _1_ MAC  --- 0 CTS 38 [12e4 1 0 0] 
s 7.450003173 _1_ MAC  --- 21 cbr 564 [13a 2 1 800] ------- [1:0 2:0 32 0] [21] 0 1
r 7.454515909 _2_ MAC  --- 21 cbr 512 [13a 2 1 800] ------- [1:0 2:0 32 0] [21] 1 1
s 7.454525909 _2_ MAC  --- 0 ACK 38 [0 1 0 0] 
r 7.454540909 _2_ AGT  --- 21 cbr 512 [13a 2 1 800] ------- [1:0 2:0 32 0] [21] 1 1
r 7.454830644 _1_ MAC  --- 0 ACK 38 [0 1 0 0] 
s 7.618812664 _1_ AGT  --- 22 cbr 512 [0 0 0 0] ------- [1:0 2:0 32 0] [22] 0 1
r 7.618812664 _1_ RTR  --- 22 cbr 512 [0 0 0 0] ------- [1:0 2:0 32 0] [22] 0 1
s 7.618812664 _1_ RTR  --- 22 cbr 512 [0 0 0 0] ------- [1:0 2:0 32 0] [22] 0 1
s 7.619347664 _1_ MAC  --- 0 RTS 44 [141e 2 1 0] 
r 7.619700396 _2_ MAC  --- 0 RTS 44 [141e 2 1 0] 
s 7.619710396 _2_ MAC  --- 0 CTS 38 [12e4 1 0 0] 
r 7.620015128 _1_ MAC  --- 0 CTS 38 [12e4 1 0 0] 
s 7.620025128 _1_ MAC  --- 22 cbr 564 [13a 2 1 800] ------- [1:0 2:0 32 0] [22] 0 1
r 7.624537859 _2_ MAC  --- 22 cbr 512 [13a 2 1 800] ------- [1:0 2:0 32 0] [22] 1 1
s 7.624547859 _2_ MAC  --- 0 ACK 38 [0 1 0 0] 
r 7.624562859 _2_ AGT  --- 22 cbr 512 [13a 2 1 800] ------- [1:0 2:0 32 0] [22] 1 1
r 7.624852591 _1_ MAC  --- 0 ACK 38 [0 1 0 0] 
s 7.866743090 _1_ AGT  --- 23 cbr 512 [0 0 0 0] ------- [1:0 2:0 32 0] [23] 0 1
r 7.866743090 _1_ RTR  --- 23 cbr 512 [0 0 0 0] ------- [1:0 2:0 32 0] [23] 0 1
s 7.866743090 _1_ RTR  --- 23 cbr 512 [0 0 0 0] ------- [1:0 2:0 32 0] [23] 0 1
s 7.866918090 _1_ MAC  --- 0 RTS 44 [141e 2 1 0] 
r 7.867270816 _2_ MAC  --- 0 RTS 44 [141e 2 1 0] 
s 7.867280816 _2_ MAC  --- 0 CTS 38 [12e4 1 0 0] 
r 7.867585542 _1_ MAC  --- 0 CTS 38 [12e4 1 0 0] 
s 7.867595542 _1_ MAC  --- 23 cbr 564 [13a 2 1 800] ------- [1:0 2:0 32 0] [23] 0 1
r 7.872108269 _2_ MAC  --- 23 cbr 512 [13a 2 1 800] ------- [1:0 2:0 32 0] [23] 1 1
s 7.872118269 _2_ MAC  --- 0 ACK 38 [0 1 0 0] 
r 7.872133269 _2_ AGT  --- 23 cbr 512 [13a 2 1 800] ------- [1:0 2:0 32 0] [23] 1 1
r 7.872422995 _1_ MAC  --- 0 ACK 38 [0 1 0 0] 
s 8.124967728 _1_ AGT  --- 24 cbr 512 [0 0 0 0] ------- [1:0 2:0 32 0] [24] 0 1
r 8.124967728 _1_ RTR  --- 24 cbr 512 [0 0 0 0] ------- [1:0 2:0 32 0] [24] 0 1
s 8.124967728 _1_ RTR  --- 24 cbr 512 [0 0 0 0] ------- [1:0 2:0 32 0] [24] 0 1
s 8.125242728 _1_ MAC  --- 0 RTS 44 [141e 2 1 0] 
r 8.125595448 _2_ MAC  --- 0 RTS 44 [141e 2 1 0] 
s 8.125605448 _2_ MAC  --- 0 CTS 38 [12e4 1 0 0] 
r 8.125910169 _1_ MAC  --- 0 CTS 38 [12e4 1 0 0] 
s 8.125920169 _1_ MAC  --- 24 cbr 564 [13a 2 1 800] ------- [1:0 2:0 32 0] [24] 0 1
r 8.130432889 _2_ MAC  --- 24 cbr 512 [13a 2 1 800] ------- [1:0 2:0 32 0] [24] 1 1
s 8.130442889 _2_ MAC  --- 0 ACK 38 [0 1 0 0] 
r 8.130457889 _2_ AGT  --- 24 cbr 512 [13a 2 1 800] ------- [1:0 2:0 32 0] [24] 1 1
r 8.130747609 _1_ MAC  --- 0 ACK 38 [0 1 0 0] 
s 8.272017764 _1_ AGT  --- 25 cbr 512 [0 0 0 0] ------- [1:0 2:0 32 0] [25] 0 1
r 8.272017764 _1_ RTR  --- 25 cbr 512 [0 0 0 0] ------- [1:0 2:0 32 0] [25] 0 1
s 8.272017764 _1_ RTR  --- 25 cbr 512 [0 0 0 0] ------- [1:0 2:0 32 0] [25] 0 1
s 8.272692764 _1_ MAC  --- 0 RTS 44 [141e 2 1 0] 
r 8.273045481 _2_ MAC  --- 0 RTS 44 [141e 2 1 0] 
s 8.273055481 _2_ MAC  --- 0 CTS 38 [12e4 1 0 0] 
r 8.273360199 _1_ MAC  --- 0 CTS 38 [12e4 1 0 0] 
s 8.273370199 _1_ MAC  --- 25 cbr 564 [13a 2 1 800] ------- [1:0 2:0 32 0] [25] 0 1
r 8.277882916 _2_ MAC  --- 25 cbr 512 [13a 2 1 800] ------- [1:0 2:0 32 0] [25] 1 1
s 8.277892916 _2_ MAC  --- 0 ACK 38 [0 1 0 0] 
r 8.277907916 _2_ AGT  --- 25 cbr 512 [13a 2 1 800] ------- [1:0 2:0 32 0] [25] 1 1
r 8.278197633 _1_ MAC  --- 0 ACK 38 [0 1 0 0] 
s 8.579028207 _1_ AGT  --- 26 cbr 512 [0 0 0 0] ------- [1:0 2:0 32 0] [26] 0 1
r 8.579028207 _1_ RTR  --- 26 cbr 512 [0 0 0 0] ------- [1:0 2:0 32 0] [26] 0 1
s 8.579028207 _1_ RTR  --- 26 cbr 512 [0 0 0 0] ------- [1:0 2:0 32 0] [26] 0 1
s 8.579683207 _1_ MAC  --- 0 RTS 44 [141e 2 1 0] 
r 8.580035918 _2_ MAC  --- 0 RTS 44 [141e 2 1 0] 
s 8.580045918 _2_ MAC  --- 0 CTS 38 [12e4 1 0 0] 
r 8.580350628 _1_ MAC  --- 0 CTS 38 [12e4 1 0 0] 
s 8.580360628 _1_ MAC  --- 26 cbr 564 [13a 2 1 800] ------- [1:0 2:0 32 0] [26] 0 1
r 8.584873338 _2_ MAC  --- 26 cbr 512 [13a 2 1 800] ------- [1:0 2:0 32 0] [26] 1 1
s 8.584883338 _2_ MAC  --- 0 ACK 38 [0 1 0 0] 
r 8.584898338 _2_ AGT  --- 26 cbr 512 [13a 2 1 800] ------- [1:0 2:0 32 0] [26] 1 1
r 8.585188048 _1_ MAC  --- 0 ACK 38 [0 1 0 0] 
s 8.887988340 _1_ AGT  --- 27 cbr 512 [0 0 0 0] ------- [1:0 2:0 32 0] [27] 0 1
r 8.887988340 _1_ RTR  --- 27 cbr 512 [0 0 0 0] ------- [1:0 2:0 32 0] [27] 0 1
s 8.887988340 _1_ RTR  --- 27 cbr 512 [0 0 0 0] ------- [1:0 2:0 32 0] [27] 0 1
s 8.888503340 _1_ MAC  --- 0 RTS 44 [141e 2 1 0] 
r 8.888856043 _2_ MAC  --- 0 RTS 44 [141e 2 1 0] 
s 8.888866043 _2_ MAC  --- 0 CTS 38 [12e4 1 0 0] 
r 8.889170747 _1_ MAC  --- 0 CTS 38 [12e4 1 0 0] 
s 8.889180747 _1_ MAC  --- 27 cbr 564 [13a 2 1 800] ------- [1:0 2:0 32 0] [27] 0 1
r 8.893693450 _2_ MAC  --- 27 cbr 512 [13a 2 1 800] ------- [1:0 2:0 32 0] [27] 1 1
s 8.893703450 _2_ MAC  --- 0 ACK 38 [0 1 0 0] 
r 8.893718450 _2_ AGT  --- 27 cbr 512 [13a 2 1 800] ------- [1:0 2:0 32 0] [27] 1 1
r 8.894008153 _1_ MAC  --- 0 ACK 38 [0 1 0 0] 
s 9.152590486 _1_ AGT  --- 28 cbr 512 [0 0 0 0] ------- [1:0 2:0 32 0] [28] 0 1
r 9.152590486 _1_ RTR  --- 28 cbr 512 [0 0 0 0] ------- [1:0 2:0 32 0] [28] 0 1
s 9.152590486 _1_ RTR  --- 28 cbr 512 [0 0 0 0] ------- [1:0 2:0 32 0] [28] 0 1
s 9.152965486 _1_ MAC  --- 0 RTS 44 [141e 2 1 0] 
r 9.153318184 _2_ MAC  --- 0 RTS 44 [141e 2 1 0] 
s 9.153328184 _2_ MAC  --- 0 CTS 38 [12e4 1 0 0] 
r 9.153632882 _1_ MAC  --- 0 CTS 38 [12e4 1 0 0] 
s 9.153642882 _1_ MAC  --- 28 cbr 564 [13a 2 1 800] ------- [1:0 2:0 32 0] [28] 0 1
r 9.158155580 _2_ MAC  --- 28 cbr 512 [13a 2 1 800] ------- [1:0 2:0 32 0] [28] 1 1
s 9.158165580 _2_ MAC  --- 0 ACK 38 [0 1 0 0] 
r 9.158180580 _2_ AGT  --- 28 cbr 512 [13a 2 1 800] ------- [1:0 2:0 32 0] [28] 1 1
r 9.158470277 _1_ MAC  --- 0 ACK 38 [0 1 0 0] 
s 9.443471965 _1_ AGT  --- 29 cbr 512 [0 0 0 0] ------- [1:0 2:0 32 0] [29] 0 1
r 9.443471965 _1_ RTR  --- 29 cbr 512 [0 0 0 0] ------- [1:0 2:0 32 0] [29] 0 1
s 9.443471965 _1_ RTR  --- 29 cbr 512 [0 0 0 0] ------- [1:0 2:0 32 0] [29] 0 1
s 9.443586965 _1_ MAC  --- 0 RTS 44 [141e 2 1 0] 
r 9.443939656 _2_ MAC  --- 0 RTS 44 [141e 2 1 0] 
s 9.443949656 _2_ MAC  --- 0 CTS 38 [12e4 1 0 0] 
r 9.444254347 _1_ MAC  --- 0 CTS 38 [12e4 1 0 0] 
s 9.444264347 _1_ MAC  --- 29 cbr 564 [13a 2 1 800] ------- [1:0 2:0 32 0] [29] 0 1
r 9.448777039 _2_ MAC  --- 29 cbr 512 [13a 2 1 800] ------- [1:0 2:0 32 0] [29] 1 1
s 9.448787039 _2_ MAC  --- 0 ACK 38 [0 1 0 0] 
r 9.448802039 _2_ AGT  --- 29 cbr 512 [13a 2 1 800] ------- [1:0 2:0 32 0] [29] 1 1
r 9.449091730 _1_ MAC  --- 0 ACK 38 [0 1 0 0] 
s 9.705002719 _1_ AGT  --- 30 cbr 512 [0 0 0 0] ------- [1:0 2:0 32 0] [30] 0 1
r 9.705002719 _1_ RTR  --- 30 cbr 512 [0 0 0 0] ------- [1:0 2:0 32 0] [30] 0 1
s 9.705002719 _1_ RTR  --- 30 cbr 512 [0 0 0 0] ------- [1:0 2:0 32 0] [30] 0 1
s 9.705257719 _1_ MAC  --- 0 RTS 44 [141e 2 1 0] 
r 9.705610405 _2_ MAC  --- 0 RTS 44 [141e 2 1 0] 
s 9.705620405 _2_ MAC  --- 0 CTS 38 [12e4 1 0 0] 
r 9.705925091 _1_ MAC  --- 0 CTS 38 [12e4 1 0 0] 
s 9.705935091 _1_ MAC  --- 30 cbr 564 [13a 2 1 800] ------- [1:0 2:0 32 0] [30] 0 1
r 9.710447777 _2_ MAC  --- 30 cbr 512 [13a 2 1 800] ------- [1:0 2:0 32 0] [30] 1 1
s 9.710457777 _2_ MAC  --- 0 ACK 38 [0 1 0 0] 
r 9.710472777 _2_ AGT  --- 30 cbr 512 [13a 2 1 800] ------- [1:0 2:0 32 0] [30] 1 1
r 9.710762462 _1_ MAC  --- 0 ACK 38 [0 1 0 0] 
s 9.850860192 _1_ AGT  --- 31 cbr 512 [0 0 0 0] ------- [1:0 2:0 32 0] [31] 0 1
r 9.850860192 _1_ RTR  --- 31 cbr 512 [0 0 0 0] ------- [1:0 2:0 32 0] [31] 0 1
s 9.850860192 _1_ RTR  --- 31 cbr 512 [0 0 0 0] ------- [1:0 2:0 32 0] [31] 0 1
s 9.851335192 _1_ MAC  --- 0 RTS 44 [141e 2 1 0] 
r 9.851687874 _2_ MAC  --- 0 RTS 44 [141e 2 1 0] 
s 9.851697874 _2_ MAC  --- 0 CTS 38 [12e4 1 0 0] 
r 9.852002557 _1_ MAC  --- 0 CTS 38 [12e4 1 0 0] 
s 9.852012557 _1_ MAC  --- 31 cbr 564 [13a 2 1 800] ------- [1:0 2:0 32 0] [31] 0 1
r 9.856525240 _2_ MAC  --- 31 cbr 512 [13a 2 1 800] ------- [1:0 2:0 32 0] [31] 1 1
s 9.856535240 _2_ MAC  --- 0 ACK 38 [0 1 0 0] 
r 9.856550240 _2_ AGT  --- 31 cbr 512 [13a 2 1 800] ------- [1:0 2:0 32 0] [31] 1 1
r 9.856839923 _1_ MAC  --- 0 ACK 38 [0 1 0 0] 
s 10.203844992 _1_ AGT  --- 32 cbr 512 [0 0 0 0] ------- [1:0 2:0 32 0] [32] 0 1
r 10.203844992 _1_ RTR  --- 32 cbr 512 [0 0 0 0] ------- [1:0 2:0 32 0] [32] 0 1
s 10.203844992 _1_ RTR  --- 32 cbr 512 [0 0 0 0] ------- [1:0 2:0 32 0] [32] 0 1
s 10.204139992 _1_ MAC  --- 0 RTS 44 [141e 2 1 0] 
r 10.204492667 _2_ MAC  --- 0 RTS 44 [141e 2 1 0] 
s 10.204502667 _2_ MAC  --- 0 CTS 38 [12e4 1 0 0] 
r 10.204807343 _1_ MAC  --- 0 CTS 38 [12e4 1 0 0] 
s 10.204817343 _1_ MAC  --- 32 cbr 564 [13a 2 1 800] ------- [1:0 2:0 32 0] [32] 0 1
r 10.209330018 _2_ MAC  --- 32 cbr 512 [13a 2 1 800] ------- [1:0 2:0 32 0] [32] 1 1
s 10.209340018 _2_ MAC  --- 0 ACK 38 [0 1 0 0] 
r 10.209355018 _2_ AGT  --- 32 cbr 512 [13a 2 1 800] ------- [1:0 2:0 32 0] [32] 1 1
r 10.209644694 _1_ MAC  --- 0 ACK 38 [0 1 0 0] 
s 10.405092235 _1_ AGT  --- 33 cbr 512 [0 0 0 0] ------- [1:0 2:0 32 0] [33] 0 1
r 10.405092235 _1_ RTR  --- 33 cbr 512 [0 0 0 0] ------- [1:0 2:0 32 0] [33] 0 1
s 10.405092235 _1_ RTR  --- 33 cbr 512 [0 0 0 0] ------- [1:0 2:0 32 0] [33] 0 1
s 10.405527235 _1_ MAC  --- 0 RTS 44 [141e 2 1 0] 
r 10.405879906 _2_ MAC  --- 0 RTS 44 [141e 2 1 0] 
s 10.405889906 _2_ MAC  --- 0 CTS 38 [12e4 1 0 0] 
r 10.406194578 _1_ MAC  --- 0 CTS 38 [12e4 1 0 0] 
s 10.406204578 _1_ MAC  --- 33 cbr 564 [13a 2 1 800] ------- [1:0 2:0 32 0] [33] 0 1
r 10.410717249 _2_ MAC  --- 33 cbr 512 [13a 2 1 800] ------- [1:0 2:0 32 0] [33] 1 1
s 10.410727249 _2_ MAC  --- 0 ACK 38 [0 1 0 0] 
r 10.410742249 _2_ AGT  --- 33 cbr 512 [13a 2 1 800] ------- [1:0 2:0 32 0] [33] 1 1
r 10.411031920 _1_ MAC  --- 0 ACK 38 [0 1 0 0] 
s 10.750406605 _1_ AGT  --- 34 cbr 512 [0 0 0 0] ------- [1:0 2:0 32 0] [34] 0 1
r 10.750406605 _1_ RTR  --- 34 cbr 512 [0 0 0 0] ------- [1:0 2:0 32 0] [34] 0 1
s 10.750406605 _1_ RTR  --- 34 cbr 512 [0 0 0 0] ------- [1:0 2:0 32 0] [34] 0 1
s 10.750981605 _1_ MAC  --- 0 RTS 44 [141e 2 1 0] 
r 10.751334269 _2_ MAC  --- 0 RTS 44 [141e 2 1 0] 
s 10.751344269 _2_ MAC  --- 0 CTS 38 [12e4 1 0 0] 
r 10.751648933 _1_ MAC  --- 0 CTS 38 [12e4 1 0 0] 
s 10.751658933 _1_ MAC  --- 34 cbr 564 [13a 2 1 800] ------- [1:0 2:0 32 0] [34] 0 1
r 10.756171597 _2_ MAC  --- 34 cbr 512 [13a 2 1 800] ------- [1:0 2:0 32 0] [34] 1 1
s 10.756181597 _2_ MAC  --- 0 ACK 38 [0 1 0 0] 
r 10.756196597 _2_ AGT  --- 34 cbr 512 [13a 2 1 800] ------- [1:0 2:0 32 0] [34] 1 1
r 10.756486262 _1_ MAC  --- 0 ACK 38 [0 1 0 0] 
s 10.918211358 _1_ AGT  --- 35 cbr 512 [0 0 0 0] ------- [1:0 2:0 32 0] [35] 0 1
r 10.918211358 _1_ RTR  --- 35 cbr 512 [0 0 0 0] ------- [1:0 2:0 32 0] [35] 0 1
s 10.918211358 _1_ RTR  --- 35 cbr 512 [0 0 0 0] ------- [1:0 2:0 32 0] [35] 0 1
s 10.918306358 _1_ MAC  --- 0 RTS 44 [141e 2 1 0] 
r 10.918659019 _2_ MAC  --- 0 RTS 44 [141e 2 1 0] 
s 10.918669019 _2_ MAC  --- 0 CTS 38 [12e4 1 0 0] 
r 10.918973680 _1_ MAC  --- 0 CTS 38 [12e4 1 0 0] 
s 10.918983680 _1_ MAC  --- 35 cbr 564 [13a 2 1 800] ------- [1:0 2:0 32 0] [35] 0 1
r 10.923496340 _2_ MAC  --- 35 cbr 512 [13a 2 1 800] ------- [1:0 2:0 32 0] [35] 1 1
s 10.923506340 _2_ MAC  --- 0 ACK 38 [0 1 0 0] 
r 10.923521340 _2_ AGT  --- 35 cbr 512 [13a 2 1 800] ------- [1:0 2:0 32 0] [35] 1 1
r 10.923811001 _1_ MAC  --- 0 ACK 38 [0 1 0 0] 
s 11.197050514 _1_ AGT  --- 36 cbr 512 [0 0 0 0] ------- [1:0 2:0 32 0] [36] 0 1
r 11.197050514 _1_ RTR  --- 36 cbr 512 [0 0 0 0] ------- [1:0 2:0 32 0] [36] 0 1
s 11.197050514 _1_ RTR  --- 36 cbr 512 [0 0 0 0] ------- [1:0 2:0 32 0] [36] 0 1
s 11.197125514 _1_ MAC  --- 0 RTS 44 [141e 2 1 0] 
r 11.197478169 _2_ MAC  --- 0 RTS 44 [141e 2 1 0] 
s 11.197488169 _2_ MAC  --- 0 CTS 38 [12e4 1 0 0] 
r 11.197792824 _1_ MAC  --- 0 CTS 38 [12e4 1 0 0] 
s 11.197802824 _1_ MAC  --- 36 cbr 564 [13a 2 1 800] ------- [1:0 2:0 32 0] [36] 0 1
r 11.202315480 _2_ MAC  --- 36 cbr 512 [13a 2 1 800] ------- [1:0 2:0 32 0] [36] 1 1
s 11.202325480 _2_ MAC  --- 0 ACK 38 [0 1 0 0] 
r 11.202340480 _2_ AGT  --- 36 cbr 512 [13a 2 1 800] ------- [1:0 2:0 32 0] [36] 1 1
r 11.202630135 _1_ MAC  --- 0 ACK 38 [0 1 0 0] 
s 11.434865877 _1_ AGT  --- 37 cbr 512 [0 0 0 0] ------- [1:0 2:0 32 0] [37] 0 1
r 11.434865877 _1_ RTR  --- 37 cbr 512 [0 0 0 0] ------- [1:0 2:0 32 0] [37] 0 1
s 11.434865877 _1_ RTR  --- 37 cbr 512 [0 0 0 0] ------- [1:0 2:0 32 0] [37] 0 1
s 11.435540877 _1_ MAC  --- 0 RTS 44 [141e 2 1 0] 
r 11.435893528 _2_ MAC  --- 0 RTS 44 [141e 2 1 0] 
s 11.435903528 _2_ MAC  --- 0 CTS 38 [12e4 1 0 0] 
r 11.436208178 _1_ MAC  --- 0 CTS 38 [12e4 1 0 0] 
s 11.436218178 _1_ MAC  --- 37 cbr 564 [13a 2 1 800] ------- [1:0 2:0 32 0] [37] 0 1
r 11.440730829 _2_ MAC  --- 37 cbr 512 [13a 2 1 800] ------- [1:0 2:0 32 0] [37] 1 1
s 11.440740829 _2_ MAC  --- 0 ACK 38 [0 1 0 0] 
r 11.440755829 _2_ AGT  --- 37 cbr 512 [13a 2 1 800] ------- [1:0 2:0 32 0] [37] 1 1
r 11.441045479 _1_ MAC  --- 0 ACK 38 [0 1 0 0] 
s 11.669844479 _1_ AGT  --- 38 cbr 512 [0 0 0 0] ------- [1:0 2:0 32 0] [38] 0 1
r 11.669844479 _1_ RTR  --- 38 cbr 512 [0 0 0 0] ------- [1:0 2:0 32 0] [38] 0 1
s 11.669844479 _1_ RTR  --- 38 cbr 512 [0 0 0 0] ------- [1:0 2:0 32 0] [38] 0 1
s 11.669939479 _1_ MAC  --- 0 RTS 44 [141e 2 1 0] 
r 11.670292125 _2_ MAC  --- 0 RTS 44 [141e 2 1 0] 
s 11.670302125 _2_ MAC  --- 0 CTS 38 [12e4 1 0 0] 
r 11.670606771 _1_ MAC  --- 0 CTS 38 [12e4 1 0 0] 